# LAMMPS data file written by OVITO Basic 3.9.4

432 atoms
2 atom types

-6.64615496 13.1010840831 xlo xhi
-0.1287690525 16.8991668534 ylo yhi
-0.464598251 25.714491931 zlo zhi
-9.831083379 0.0 0.0 xy xz yz

Masses

1 183.84  # W
2 78.96  # Se

Atoms  # atomic

183 2 -6.2712 2.06301 1.33215
10 1 -5.65433 0.395149 0.170533
38 2 -3.03328 1.29808 0.168541
111 2 -6.76914 2.10417 4.80136
71 2 -3.85108 2.59347 5.98695
33 2 -6.51352 1.04598 7.78282
18 2 -5.81145 4.27524 7.78064
215 2 -1.82956 0.316129 6.89228
309 2 -3.67453 2.73366 9.77742
83 2 -7.49906 1.82163 10.6873
42 2 -1.95913 0.419503 12.6872
353 2 -4.69158 2.4645 12.9597
369 2 -7.36522 4.04335 14.7621
379 1 -3.8211 0.222732 14.3426
308 2 -5.6439 4.22646 17.9863
427 1 -3.43239 0.231631 17.4697
144 2 -8.01617 2.28501 17.7968
272 2 -5.01682 0.473059 20.9388
383 2 -5.55858 4.16511 21.1378
223 1 -7.90178 3.95897 19.7462
387 2 -5.55965 1.9046 24.1208
73 1 -4.13536 0.459893 23.4228
93 2 -8.22388 3.36132 25.4217
238 1 -7.27475 7.99343 1.26173
265 1 -6.51383 5.51668 -0.128598
27 2 -8.30909 5.40021 1.83878
13 1 -10.3481 6.97079 1.6797
63 2 -8.60171 4.99601 5.70688
186 2 -9.94844 6.67988 4.30075
89 2 -7.59821 8.42515 3.3026
14 2 -4.51793 4.46985 4.47436
421 1 -6.74496 6.03842 8.55759
65 2 -7.25847 8.5107 8.68177
17 2 -8.85294 4.53817 8.94498
68 2 -6.34874 7.01264 6.12782
54 2 -6.52496 5.30546 11.1237
392 2 -8.26489 7.83366 11.9736
349 1 -6.95349 6.49907 13.7161
321 2 -9.81691 6.1844 14.2713
313 1 -7.16459 5.09488 16.6648
267 2 -8.31173 6.32139 18.6936
231 2 -7.13683 7.67448 16.0919
268 1 -7.70392 8.226 21.0151
188 2 -7.72299 6.21209 21.8174
273 2 -10.288 8.22971 21.1477
319 1 -5.91133 6.28365 19.7047
20 2 -8.47365 6.98644 25.2768
81 2 -5.66039 5.0299 24.1369
205 1 -11.0533 12.5236 1.59197
276 2 -9.68973 11.9291 0.0689184
356 2 -9.75892 8.98832 1.06942
194 2 -12.5225 10.3681 0.357934
198 2 -10.0904 9.48097 5.7254
164 2 -11.9378 11.3056 3.86924
58 1 -9.63391 12.1707 4.97589
193 1 -10.2869 9.29118 3.60178
105 2 -8.83046 11.4686 3.08482
380 2 -10.6554 11.5776 8.7404
410 2 -10.1179 10.237 11.5211
19 1 -11.4431 12.5238 10.9378
417 2 -12.0871 11.3356 15.7107
277 1 -10.9477 10.361 13.4564
397 1 -7.43716 9.53728 13.683
246 2 -9.53288 9.27976 15.1817
432 2 -11.0623 12.2527 18.6752
236 2 -9.35889 9.59791 18.3566
274 1 -12.0639 10.0411 17.8864
244 1 -9.63002 11.5202 16.4305
418 1 -10.3552 10.319 20.7864
227 2 -11.461 12.3808 21.8585
322 1 -11.5448 11.5867 24.3323
407 2 -10.1888 10.037 23.6589
317 2 -7.10128 9.09287 23.3324
2 2 -10.6983 14.6053 1.46282
206 2 -14.8449 16.367 2.32418
252 2 -13.5819 13.2769 0.884108
47 2 -11.5395 13.8505 5.8395
263 2 -11.7121 16.9617 3.57124
8 2 -15.9272 16.0822 5.25421
117 2 -14.2594 15.0817 7.98245
64 1 -12.5457 13.1764 8.2739
247 1 -14.0048 14.5761 10.4229
224 2 -14.8152 16.9509 10.6632
180 2 -11.4123 14.9241 10.059
167 2 -14.0287 14.9295 13.0402
217 1 -14.9583 14.5576 15.532
237 2 -16.1014 16.7781 14.8306
161 2 -11.6865 12.9331 13.0319
339 2 -12.6653 16.002 15.8438
419 2 -10.21 14.0722 16.2096
182 2 -15.2262 16.5514 17.9292
219 2 -12.0158 16.0936 18.9467
403 1 -14.0802 15.527 20.3762
26 2 -12.5995 15.4716 21.983
405 2 -14.0404 12.9737 19.3116
80 2 -11.0695 14.3109 24.4701
221 2 -14.0106 13.3131 23.9437
104 2 -13.3965 16.0214 25.5757
122 2 -1.84293 3.30822 2.55689
300 2 -4.13123 4.13186 0.606377
107 2 1.0916 0.836712 2.56216
302 2 0.0622661 2.33837 5.13263
4 1 -1.93817 1.80452 4.54471
127 1 0.466072 3.91128 3.23237
114 2 0.320229 3.18372 8.0332
343 1 -1.71015 2.81979 7.82491
76 1 0.736982 0.549627 8.04386
21 2 -0.314558 3.05854 11.1483
264 2 -1.08404 1.04199 9.8296
124 1 -0.509791 1.33985 14.6482
381 2 -0.617554 3.99934 14.0615
284 2 1.44487 1.18136 12.9321
293 2 -2.79859 2.31245 15.5971
40 1 -2.6166 2.805 12.921
208 1 1.9672 1.78302 18.1361
260 2 -0.413972 3.18287 18.2225
329 2 -2.69156 2.29238 18.8678
228 2 0.129393 0.266437 17.079
116 2 0.434635 0.884262 20.2239
239 2 -3.42858 3.05081 21.9043
310 1 -2.35059 0.831481 20.9763
79 1 -1.09955 3.68635 22.9814
299 2 -1.54305 1.15155 23.5241
406 1 -3.38222 3.21663 24.4648
191 2 -1.09771 3.86511 25.5614
411 2 1.35476 2.94189 22.7807
86 2 -1.96671 6.64699 1.13254
99 2 -5.315 6.57933 2.05847
211 1 -3.41815 5.98457 -0.39281
269 2 -3.3586 7.51182 4.20497
94 1 -2.0609 5.27196 4.14092
43 1 -1.25872 7.51509 5.6093
28 1 -1.43392 6.95862 8.40877
142 1 -4.32102 6.33607 6.47922
84 2 -1.62257 5.09183 9.29131
266 2 -3.006 8.6629 7.16268
177 2 -1.85308 5.05349 6.28861
87 2 -4.23608 6.66315 9.08887
307 1 -1.2068 5.36189 11.7605
218 2 -1.69162 8.02912 10.7765
301 1 -4.09802 4.80666 10.1712
46 1 -5.97475 7.91182 10.7412
230 2 -5.32851 7.66673 13.1378
82 1 -4.75276 8.35821 15.4885
66 2 -4.69764 5.64334 15.4667
242 2 -3.34376 5.37645 12.5926
248 2 -3.29566 6.9777 17.1599
126 2 -1.31639 5.2805 15.9504
287 2 -4.83137 7.50808 21.669
341 2 -0.408878 5.07754 20.9964
282 2 -3.32835 5.97559 19.4209
283 1 -4.0125 8.65725 19.2935
354 2 -2.39472 5.86366 23.4343
179 2 -5.31043 7.89045 25.3424
50 2 -5.23931 10.1396 2.49828
318 2 -7.30614 10.9756 0.0983461
97 1 -4.05163 8.83459 1.28131
49 1 -3.33558 9.6028 4.38864
60 2 -5.53515 9.91241 5.806
305 2 -6.28739 12.7926 4.46485
146 2 -3.8502 11.6117 8.36527
7 1 -4.80021 9.13123 8.20089
52 1 -5.44104 12.3066 6.38327
62 2 -8.3779 11.9805 6.68542
106 1 -4.24682 11.8798 10.8394
41 2 -6.61705 10.5292 11.2419
209 2 -3.78236 9.3177 10.6591
291 2 -5.9414 10.5278 14.9306
229 1 -4.49789 10.1047 12.9629
24 2 -8.6643 11.9211 13.7916
351 2 -2.62687 8.70813 14.1447
279 2 -3.49644 10.1443 16.9903
102 2 -7.62887 12.0669 16.9618
358 1 -1.94521 8.55659 16.5959
281 2 -6.13039 8.92975 19.1323
289 1 -5.62164 10.0533 21.5323
285 2 -3.95547 11.3336 20.0073
412 1 -8.48787 12.2227 19.3234
332 2 -7.9586 11.1638 21.0686
359 2 -3.43121 9.85178 23.2344
391 1 -7.83911 11.5627 23.6453
234 2 -5.5019 12.3157 22.7892
15 2 -4.13315 10.7841 25.6618
365 2 -7.43925 14.3896 1.69386
286 1 -6.78419 16.9272 1.18496
315 2 -8.89389 16.5789 -0.501159
103 1 -5.52536 12.906 0.0382081
240 2 -8.89139 14.5557 3.93472
109 1 -9.66977 16.5865 5.29166
56 2 -7.63005 17.1001 5.94801
39 2 -9.78625 14.8632 7.35391
207 2 -6.50294 13.408 8.75545
373 1 -9.13963 13.5978 8.91362
31 1 -7.46671 14.4082 6.24891
112 1 -6.25905 16.2558 8.11535
355 1 -6.51478 14.408 10.6198
357 2 -8.84028 13.4834 11.7196
204 2 -8.36995 16.0923 10.0316
303 2 -7.01285 14.4185 15.2063
278 2 -9.87629 15.6876 14.3228
295 1 -7.80838 16.82 15.2762
326 2 -5.51626 13.1126 12.7166
256 1 -8.03657 14.8405 17.6249
270 2 -6.66565 16.4726 17.6867
258 2 -9.25228 14.6922 20.066
250 1 -7.12874 16.3018 20.2451
262 1 -7.24651 13.9468 21.8674
344 2 -6.26797 13.7476 19.3786
275 2 -6.4955 14.2755 24.8858
294 2 -9.15502 13.1858 23.3909
44 2 -8.11707 16.2875 22.6244
145 1 -8.85918 14.4435 25.7575
131 2 4.42202 2.23535 1.98008
12 2 1.59789 3.79268 1.45683
139 1 5.47145 1.12469 -0.314583
148 1 5.94216 0.241078 2.46108
201 2 2.72389 4.14541 4.50662
25 1 2.69134 1.54706 3.82868
123 2 6.94161 1.90143 4.14098
78 2 2.95539 1.55483 8.87127
157 1 2.37279 2.60689 6.70481
30 2 4.7706 2.04172 6.08763
155 2 5.8898 0.554239 7.69863
77 2 2.70515 4.1395 10.8142
296 2 4.3647 3.83708 13.6173
337 1 3.67228 2.07 14.6645
130 1 1.3939 3.77291 13.2528
320 2 1.84819 2.64565 15.6562
345 2 4.58493 2.19959 17.1002
333 2 2.40921 4.44328 18.5268
232 1 7.01947 0.743199 16.258
425 2 3.50894 1.76364 20.3548
327 2 5.72431 3.32655 20.2821
382 1 1.29999 3.29353 20.659
372 2 5.40755 3.35821 23.54
288 2 3.43013 1.47767 25.1007
176 2 6.1586 0.313138 23.5711
280 1 3.00513 6.01669 0.634135
135 2 0.831676 8.05441 0.631706
401 2 4.81306 4.88937 0.308575
128 2 0.29615 6.43433 3.70304
125 2 3.61836 6.75997 3.01611
118 1 0.689539 4.96429 6.11063
404 2 2.83766 5.01088 7.66278
143 2 1.07326 7.5031 6.69515
213 2 0.979454 7.48401 9.23279
189 2 0.750257 6.29957 12.0884
367 1 1.11902 4.93512 9.70197
375 2 2.21415 5.71084 14.8821
393 2 0.291245 7.98866 15.2994
233 2 2.8604 7.25475 17.5327
210 2 -0.249122 7.02532 18.4537
346 1 1.07434 5.20586 17.0885
385 1 3.88506 4.61761 16.3641
384 2 3.43655 4.83653 21.4068
394 1 3.42418 6.45125 20.0589
347 2 1.26893 7.86947 20.3683
413 2 3.53793 7.92388 22.4921
334 1 1.45976 6.16976 22.3372
335 2 1.58326 5.32265 24.7792
376 1 2.3224 7.84279 24.7504
151 1 4.25959 5.64213 23.8595
243 2 0.196415 8.14463 23.4388
91 1 -0.248899 6.31711 25.0853
216 2 -2.08556 9.60119 1.90132
133 1 -1.95702 11.9809 0.335843
51 2 -1.30755 12.6561 2.33328
45 2 -0.806477 9.93919 4.87503
74 2 -3.11158 12.3007 5.07387
390 2 0.914456 10.422 2.81185
422 2 0.0315711 10.8936 8.05259
100 1 -2.28665 11.2371 6.8798
119 2 -0.20096 10.8162 11.5364
67 1 -1.39711 12.229 9.68448
69 2 -2.36053 11.5014 12.5204
314 2 -1.10462 11.7963 15.5591
297 2 1.28437 10.986 15.1677
424 1 0.713121 12.4229 17.5068
360 2 -0.491872 10.1617 18.2597
304 1 1.34492 8.7055 17.0375
378 2 0.0909818 11.1699 22.1364
220 1 -2.45994 10.8111 21.5979
408 2 -1.66949 9.11052 20.5089
3 2 -0.383649 11.1076 25.2302
115 1 -2.45878 14.8523 1.06291
113 2 -4.60091 16.1327 0.250841
203 2 -4.50272 13.2563 1.85909
251 2 -0.189302 14.2713 -0.199589
197 2 -2.63421 15.319 3.53597
152 2 -5.71319 16.3644 3.49892
48 2 -0.043519 13.911 4.94693
428 2 -1.7644 14.0052 7.56561
61 1 -4.11034 14.2185 8.7581
170 2 -4.70038 14.9191 6.31229
57 2 -1.92486 16.7948 6.22999
150 2 -2.64012 14.2809 10.9185
185 2 -5.10681 16.1194 10.379
431 2 -0.722044 14.3431 13.7048
350 2 -3.29869 16.0132 14.3163
168 2 -5.62957 16.8322 13.4829
340 1 -3.05895 13.3446 13.2718
241 1 -4.78227 15.4298 15.6882
377 2 -4.0579 13.0493 15.6434
325 1 -1.87723 14.3139 15.9512
395 2 -3.56286 15.8014 17.8823
257 2 -1.55615 13.3767 18.588
324 2 -1.75423 16.2361 20.557
249 2 -5.20088 15.4752 21.7593
85 1 0.0200994 14.1338 20.4638
366 2 -2.24526 13.4448 21.9002
32 2 -1.58768 16.026 23.7486
312 2 -3.23827 13.7309 24.9832
1 1 -0.871981 13.2145 23.6023
316 1 -6.07178 16.1647 24.0902
5 2 10.4112 1.99351 2.63224
147 2 8.2126 0.212944 1.01574
190 1 10.8685 2.59348 4.78493
165 2 8.38238 3.97374 4.42743
88 1 12.4097 0.22249 2.92889
154 1 10.8979 2.10364 8.51979
11 2 6.9217 4.30875 7.1902
187 1 9.05751 4.05974 7.09372
386 2 9.62152 1.57775 6.29481
398 2 10.4514 3.9862 12.1159
160 1 10.2525 1.24432 11.2603
195 2 8.44649 2.45484 9.44884
253 1 9.58833 3.4924 13.9745
416 2 11.049 1.38858 13.7008
429 2 7.24007 3.30723 15.5889
120 2 7.95474 1.41789 12.8199
235 1 9.36804 2.98391 17.2447
371 2 9.13072 0.61002 15.9963
129 2 7.51669 1.61806 18.6529
328 1 9.94144 1.4348 19.7331
222 2 8.59388 1.9656 21.8958
261 2 9.7296 3.97222 19.8758
364 1 7.5416 3.78388 22.1148
402 2 12.0167 1.83727 21.4844
348 2 8.47724 2.69052 24.9104
352 1 10.189 2.92257 22.9013
29 2 10.8814 0.446996 24.0733
16 1 6.05523 6.34055 1.23258
158 2 4.58493 8.08132 -0.130228
226 1 9.9321 4.81328 -0.440308
140 2 8.00281 4.54235 1.35353
181 1 7.27776 6.44801 5.40601
96 2 5.5755 5.31771 3.62611
323 2 7.24543 8.01779 3.0853
173 2 4.80295 6.63009 6.48542
22 1 6.80554 6.92942 8.33539
53 2 9.04333 6.6108 7.32074
254 2 4.35384 7.81182 9.35992
290 2 5.93685 5.14835 9.98889
331 1 6.35888 7.19168 11.3127
409 1 8.33333 4.59281 10.8345
192 2 8.94664 6.55393 10.3658
72 2 4.64895 7.56257 12.5157
255 2 5.75124 6.19434 15.3598
368 2 7.92113 7.80918 13.5201
162 2 7.38944 4.69711 12.7555
271 1 5.04508 7.46439 17.648
132 2 8.05124 7.71128 16.9146
370 1 7.17671 5.30982 17.3963
363 2 9.80213 4.89059 16.4387
110 2 5.39314 4.95866 18.4257
414 2 5.7079 7.56434 20.1259
342 2 7.97469 5.69338 19.9993
225 2 9.26726 5.41733 23.2577
259 1 7.03189 4.81826 25.0094
9 2 6.13605 6.39425 23.1173
92 2 7.86508 7.16943 25.6984
200 2 3.47066 10.9652 0.956424
55 1 5.68375 11.6033 2.10889
388 1 1.23728 12.377 1.05881
121 1 2.98271 9.05578 1.77921
174 2 4.54136 9.71214 3.8003
166 1 2.94748 11.7254 3.48864
101 2 3.03244 10.6889 9.0826
163 1 5.44228 10.0456 8.24056
138 2 5.77796 11.8619 6.67913
149 2 7.07083 8.8763 6.50389
159 2 4.00095 8.99793 6.27347
95 2 2.47728 11.7619 6.11034
136 1 2.19943 11.9307 10.5986
70 1 4.74136 9.78551 10.9823
137 2 7.22954 9.15506 9.82269
171 2 5.86053 11.9517 10.1373
35 2 2.97598 10.6706 12.5601
415 1 4.84676 12.4855 12.655
175 1 6.27802 9.0324 15.2739
23 2 5.52149 12.5662 15.2393
90 2 4.09019 9.05732 15.0641
374 2 6.227 10.3649 12.9528
292 1 3.74552 11.5973 15.8167
245 2 5.60359 10.055 17.5993
306 2 2.69263 10.6397 18.0444
330 2 3.94515 10.8607 21.3573
430 1 5.69098 12.0002 21.7588
311 2 6.86416 9.88526 20.3801
156 2 1.09664 12.3605 20.1148
420 2 6.28148 10.177 23.4877
199 1 5.23701 11.6642 25.231
336 2 2.86977 10.543 24.7049
134 2 1.87661 16.4328 1.02837
202 1 3.73752 14.2879 1.59578
426 2 1.86079 13.7755 2.53506
75 2 4.91512 13.4369 3.89308
172 1 2.60477 14.2083 5.08573
141 2 0.671941 16.2526 4.38595
169 1 -1.01959 17.2036 3.6244
108 2 0.143195 16.7545 8.93669
338 2 2.1801 14.5954 7.66034
196 1 1.83307 16.9606 6.64089
178 1 0.628753 13.2061 7.34768
214 1 4.13925 12.9428 8.30524
98 2 1.1713 15.8454 11.8033
59 2 3.32487 13.7525 10.7089
34 1 2.67702 16.2929 9.69082
36 2 0.246389 13.6288 9.94169
184 1 3.75634 15.723 12.6218
6 2 2.79413 13.5382 14.0539
361 1 -0.769937 16.9298 13.9632
423 2 0.553887 14.8426 16.5918
389 2 3.18421 13.7089 17.462
400 1 -0.950484 16.0688 18.1561
212 2 3.79433 14.2364 21.634
298 1 0.351472 16.8176 22.1387
396 2 1.38192 16.1151 19.5595
37 1 3.60797 12.9657 19.9414
153 2 3.34626 16.002 24.3183
362 2 3.02681 13.7052 25.424
399 2 0.937093 14.2465 22.9383
