# LAMMPS data file written by OVITO Basic 3.11.2

432 atoms
2 atom types

-7.1170234615 13.5719525846 xlo xhi
-0.5347963784 17.3051941793 ylo yhi
-1.0888328054 26.3387264854 zlo zhi
-9.831083379 0.0 0.0 xy xz yz

Atoms  # atomic

147 2 -5.47883 1.95303 -0.135135
169 1 -7.45931 1.20532 1.3746
88 1 -3.13609 1.1626 1.08254
406 1 -5.56921 -0.222097 -0.366152
9 2 -7.2605 3.93417 1.51943
153 2 -5.22759 -0.0365368 2.22883
141 2 -7.15264 1.76811 3.94956
109 1 -5.06464 2.76945 2.68569
63 2 -4.74129 3.32162 5.41476
426 2 -8.03374 2.19133 9.04052
33 2 -5.41747 0.914655 9.35727
224 2 -6.48196 2.46972 11.9278
184 1 -8.64839 2.45996 11.6075
167 2 -4.04151 0.537237 12.6254
204 2 -3.2063 0.797265 15.7693
261 2 -4.58272 0.657702 17.9824
383 2 -8.13735 2.96089 19.7155
282 2 -7.05314 1.48861 22.245
211 1 -6.76373 1.78037 24.354
191 2 -5.35886 0.146496 24.5994
86 2 -4.22805 2.74392 23.2699
265 1 -4.12721 2.8004 25.7812
89 2 -9.07691 5.83033 3.32141
83 2 -6.80674 7.36452 4.8762
190 1 -7.04667 4.44433 4.37686
331 1 -11.2763 7.85502 7.50682
421 1 -9.08202 6.0874 5.94709
87 2 -6.95595 4.95293 7.02513
7 1 -7.09008 7.7013 7.38192
321 2 -9.16919 6.62868 8.66695
144 2 -7.95731 5.16334 11.2383
209 2 -8.75031 8.161 11.6008
301 1 -5.74173 5.12822 11.483
98 2 -5.15584 4.14542 9.6881
180 2 -11.613 8.29295 10.0974
230 2 -8.3867 6.42532 14.2349
279 2 -5.05353 4.58434 13.9561
349 1 -7.78956 4.37142 13.868
28 1 -6.67378 8.11299 13.3044
82 1 -6.08019 6.21226 15.6763
271 1 -9.19889 6.8147 16.1326
317 2 -9.40107 6.51957 18.7205
182 2 -7.94432 4.47535 16.592
319 1 -7.32018 5.15469 18.4828
188 2 -8.64584 5.24287 21.7859
79 1 -6.48048 4.02565 22.2284
329 2 -5.2136 3.86848 20.5011
354 2 -6.54261 4.31333 24.8423
225 2 -10.4191 6.30151 23.3868
276 2 -12.1864 12.7546 -0.830165
238 1 -8.96115 9.91184 1.43173
391 1 -10.1767 11.1769 -0.903095
80 2 -11.4297 10.9765 1.70886
205 1 -12.8319 9.93145 -0.320619
193 1 -11.8859 8.41235 1.96776
164 2 -10.5104 8.53557 -0.289665
62 2 -9.58271 8.84204 3.15231
380 2 -11.0619 10.7618 8.09168
165 2 -9.31586 8.8214 6.26559
373 1 -9.25497 9.1627 9.04618
59 2 -9.43001 11.2196 10.8701
19 1 -11.5365 10.9712 10.6469
137 2 -13.7256 12.1402 9.51906
419 2 -12.7242 12.5687 12.5132
171 2 -11.7056 9.59805 12.9294
241 1 -9.6895 10.0082 13.3669
231 2 -9.65922 12.0642 13.9115
339 2 -8.02396 9.399 15.1961
219 2 -12.4499 12.3292 16.047
357 2 -10.9764 9.22325 15.962
277 1 -10.5101 11.8309 16.746
374 2 -10.8886 12.2141 18.7823
311 2 -12.8025 12.0876 22.3423
420 2 -11.765 10.2052 24.6906
246 2 -9.31169 12.3272 24.3602
399 2 -7.72753 10.0928 26.3305
93 2 -15.0403 14.9048 0.141928
10 1 -13.7259 15.7083 1.56045
44 2 -12.9311 17.029 -0.506225
240 2 -11.2858 14.9216 1.40939
215 2 -12.6169 16.1833 4.08261
64 1 -14.5966 14.6612 4.98157
58 1 -12.1005 13.7757 3.51327
47 2 -14.1226 13.2985 2.65279
198 2 -12.5588 12.7626 5.45172
410 2 -12.1741 14.683 7.94272
117 2 -12.849 17.0386 8.22886
34 1 -15.5861 17.1724 7.9307
112 1 -10.3948 14.3215 6.09398
206 2 -15.0699 14.6548 7.48213
125 2 -15.0302 17.4465 5.88333
42 2 -14.2688 15.1827 10.8875
214 1 -11.8233 14.9735 11.6611
161 2 -10.8254 13.8434 10.1283
40 1 -13.7058 17.2184 10.7573
260 2 -12.6819 15.7013 14.223
244 1 -11.1407 13.6014 14.2578
247 1 -14.6342 15.917 13.3802
308 2 -16.0218 17.1629 15.2639
310 1 -15.7686 16.3207 17.1938
258 2 -13.1411 15.5058 17.2771
256 1 -11.9279 14.6477 19.4559
412 1 -12.7893 14.9044 22.263
236 2 -12.2917 17.1157 20.4689
26 2 -15.376 15.9412 22.0829
344 2 -10.3388 13.8445 21.4597
37 1 -14.2904 16.5501 19.7796
405 2 -13.8359 13.9299 20.0008
104 2 -13.8938 14.3363 24.5254
294 2 -11.0331 15.6177 24.1094
418 1 -11.2968 13.0599 24.2046
302 2 0.553901 2.63213 0.389402
131 2 -0.780558 0.0853434 1.41277
48 2 -2.66909 3.77727 1.49471
226 1 1.7786 0.730979 1.75977
78 2 0.679133 0.577106 4.13565
115 1 -0.533188 2.42119 2.79415
221 2 -2.84045 1.43078 3.63727
38 2 -1.00626 2.97272 5.6594
326 2 1.03871 3.20282 11.5774
284 2 -1.45758 -0.512304 10.9962
293 2 -1.5348 2.76836 13.9693
278 2 0.934389 1.11243 12.9279
295 1 -1.47637 -0.0797215 13.5844
102 2 -0.261174 -0.514956 15.8422
337 1 -0.768988 1.94362 15.8987
228 2 -1.65514 2.25044 18.3868
124 1 -1.86075 -0.31771 17.8212
208 1 0.962456 3.02087 18.285
384 2 0.227117 3.46554 20.7671
316 1 -0.389231 0.818008 20.1072
250 1 1.54558 1.66847 22.1765
116 2 -0.811271 0.958291 22.5933
425 2 2.06568 1.01209 19.6442
335 2 1.99179 0.656088 24.5585
14 2 -2.18308 2.05616 26.2023
53 2 -1.99967 7.42903 0.535209
45 2 -2.53254 6.76635 4.39092
135 2 -0.21245 4.99179 3.21179
8 2 -4.99106 5.4822 2.98178
118 1 -2.71273 4.181 3.93529
49 1 -4.82345 5.95612 5.63762
43 1 -2.71311 7.81033 6.79488
71 2 -2.84021 5.10211 7.25857
68 2 -5.02594 7.47315 7.85842
76 1 -0.458073 5.60432 5.73656
142 1 -3.89123 6.2944 9.2479
242 2 -1.53819 7.56577 9.31082
84 2 -5.34348 7.76837 11.0727
213 2 -2.89042 5.60768 11.6082
229 1 -3.93977 7.22843 13.2995
126 2 -2.80749 6.33669 15.42
283 1 -3.87769 7.49509 17.4796
66 2 -4.84913 4.91536 17.5185
210 2 -0.175569 4.44783 16.3833
54 2 -6.46537 7.71298 18.0826
334 1 -3.12738 7.67594 22.1406
313 1 -5.10198 6.4306 19.9968
341 2 -2.97761 6.28567 19.7625
248 2 -5.92621 6.65827 22.5261
4 1 -1.40705 7.07536 25.2228
243 2 -3.74801 8.05789 24.2269
91 1 -4.20167 5.39031 24.0327
300 2 -2.16401 5.42534 23.0823
111 2 -3.71819 5.39382 26.1806
97 1 -6.07198 11.1977 0.627356
99 2 -4.04688 9.71619 -0.320058
50 2 -8.74399 12.538 0.884889
287 2 -6.41929 8.91261 1.86756
216 2 -4.06817 11.6816 2.13829
179 2 -7.05556 10.9318 3.10966
18 2 -4.27585 9.28931 5.29151
100 1 -4.62315 9.98492 7.80645
41 2 -7.16741 10.4314 8.06488
356 2 -4.57126 12.2021 6.47068
369 2 -4.30556 10.6688 9.793
46 1 -6.60666 9.40437 10.5149
146 2 -6.70166 10.5134 12.3942
307 1 -2.61076 8.43448 10.9677
351 2 -3.46596 10.0088 12.8513
424 1 -2.42106 8.95327 15.2827
291 2 -5.09115 8.52499 15.2781
350 2 -3.61335 10.2005 17.5004
414 2 -7.88688 11.6218 16.6639
289 1 -2.42144 9.11634 19.6587
318 2 -4.74524 8.90835 20.5719
186 2 -5.29021 12.1403 25.3073
145 1 -7.56368 12.8808 26.1923
312 2 -5.78062 13.886 0.655353
81 2 -8.19793 15.9499 2.03714
170 2 -7.11148 15.2076 4.88475
25 1 -9.86976 16.017 3.33256
152 2 -9.6236 13.5648 3.82576
264 2 -9.73706 16.3759 6.41355
106 1 -7.38381 15.1395 7.00184
305 2 -9.0547 13.1361 7.20263
56 2 -6.88941 17.1096 7.66736
39 2 -6.43477 13.7628 9.05342
162 2 -6.16595 16.4631 11.1081
69 2 -7.12897 13.7314 12.3607
309 2 -9.72905 15.5121 13.136
340 1 -5.86621 15.1672 13.2658
74 2 -5.52564 13.0812 15.1348
427 1 -8.09223 13.4489 14.7786
416 2 -7.27049 15.9287 15.2765
397 1 -6.58863 14.0384 17.2958
270 2 -9.68562 16.2657 19.0211
392 2 -9.81753 14.2702 16.4291
24 2 -7.05465 13.402 19.2388
332 2 -8.12836 16.7832 21.9485
262 1 -10.2154 16.367 21.844
234 2 -4.75008 13.3982 21.7219
51 2 -7.73875 14.9169 25.7482
127 1 5.21687 3.15562 -0.217019
96 2 3.8187 0.751941 -0.194556
315 2 2.49895 3.79224 -0.615157
29 2 6.38782 1.66887 1.65604
254 2 2.35646 2.95847 3.04571
404 2 3.9551 0.195807 3.23534
157 1 1.47079 3.24214 5.07784
286 1 2.61036 0.0695651 4.85391
263 2 2.9738 2.24391 6.20135
120 2 6.28309 -0.162685 9.07343
320 2 7.00212 1.19813 11.8224
345 2 3.52799 3.6415 13.8109
168 2 4.78874 -0.160821 13.7791
253 1 7.32281 -0.244664 14.2924
343 1 0.941542 3.55253 14.136
303 2 1.89728 1.92588 15.9193
401 2 3.80332 3.07203 18.1469
429 2 5.80886 0.54734 16.6229
296 2 6.88657 1.24413 19.5026
411 2 4.15966 1.97911 21.9014
382 1 2.83516 3.77291 20.519
328 1 8.18784 -0.470326 21.1399
73 1 3.26506 2.34715 24.7979
275 2 5.43024 2.10554 24.7492
176 2 6.9064 -0.237819 23.666
3 2 3.61073 6.96763 -0.830303
387 2 0.286328 6.7649 -0.043694
128 2 4.73155 4.53952 1.46576
123 2 4.04788 7.5202 2.29185
107 2 2.10725 5.65795 5.32405
159 2 3.85751 5.97795 7.97767
143 2 -0.0943857 7.76419 6.27019
367 1 1.75027 6.42442 7.76794
21 2 0.619671 4.633 7.96616
72 2 1.2358 6.62076 10.5692
189 2 4.50909 5.46096 11.348
175 1 3.68082 7.64972 10.0071
22 1 2.43001 5.4013 11.9666
101 2 1.43456 6.14203 14.1805
385 1 4.24907 6.22721 14.2361
23 2 3.32319 8.15951 12.5583
393 2 -1.11419 7.81237 13.007
304 1 4.32948 5.6537 18.5486
333 2 1.68121 5.50803 18.6882
281 2 -1.22786 7.98092 17.6664
375 2 3.43718 7.30183 16.5005
346 1 2.6687 4.62591 16.2927
110 2 3.4907 6.21786 21.2362
360 2 -0.428415 7.73529 21.114
151 1 4.81996 4.44792 22.695
15 2 0.467778 6.72759 24.0749
299 2 4.80826 5.25249 25.2556
372 2 2.14036 4.07569 23.3079
390 2 -0.937299 11.3612 0.341101
148 1 -3.53628 12.4915 -0.194025
94 1 -2.41166 9.99482 1.14459
121 1 -0.524602 11.854 2.95496
381 2 0.190216 11.2369 5.3542
122 2 -1.8474 9.54329 3.23642
31 1 -2.47837 11.0137 5.46183
60 2 -2.06252 10.2726 7.40112
77 2 2.62259 8.98913 7.0705
90 2 -1.14865 10.4823 10.5393
415 1 1.36137 10.9911 10.8959
138 2 2.25269 9.71867 9.43341
218 2 -2.08996 11.7595 15.0224
358 1 -0.928863 10.3832 13.0032
217 1 0.504537 12.0554 14.8474
431 2 1.73877 10.2011 12.8295
297 2 0.290379 9.50109 15.3716
325 1 -1.0364 10.7139 17.2523
408 2 1.43189 10.8501 18.1898
174 2 2.27017 9.57204 21.0242
394 1 -0.0749876 10.2517 20.4132
396 2 -1.66054 11.6858 19.5287
251 2 0.299416 12.0221 22.2063
359 2 -2.1818 10.0554 22.3
347 2 -1.07702 9.17689 25.2982
388 1 0.40866 9.33032 23.0909
336 2 1.39113 11.0799 25.0246
376 1 1.39636 8.51687 25.8503
323 2 3.01145 8.53729 23.8323
365 2 -2.64336 14.3553 0.347259
249 2 -4.21259 16.8751 -0.671159
95 2 0.0130761 13.8291 2.40922
269 2 -2.46144 13.1156 4.26449
61 1 -2.11859 15.9025 7.98788
114 2 -4.46934 14.7241 6.71044
428 2 -1.67689 16.1374 5.84981
422 2 -1.39471 13.3415 7.59855
52 1 -0.493357 13.7806 5.65777
355 1 -4.99146 15.3027 9.19496
158 2 -3.16101 14.47 10.1512
130 1 -3.66517 16.6409 11.6756
377 2 -0.0051174 12.8664 12.3786
371 2 -1.03644 16.4225 12.4084
207 2 -3.41578 14.8 13.5212
361 1 -4.5956 15.8091 15.8738
400 1 -3.21067 16.6012 18.5273
314 2 -2.05722 15.8402 16.2611
285 2 -4.03162 13.8118 17.7588
324 2 -0.384534 13.3298 17.1405
327 2 -5.96141 16.4009 18.1821
298 1 -4.84395 14.5822 19.973
389 2 -2.19992 14.7433 20.1909
288 2 -4.57156 16.8952 20.9723
220 1 -3.22346 15.277 22.614
378 2 -2.60796 13.8845 24.6491
133 1 -1.87832 16.226 25.5698
366 2 -5.47137 15.7044 23.8758
103 1 -4.9175 14.7198 25.6659
27 2 11.3135 2.23765 -0.17242
160 1 9.02155 1.81683 1.04164
92 2 7.24319 3.80802 -0.589407
16 1 10.5652 -0.195005 -0.205539
409 1 7.15277 3.71634 2.12268
353 2 8.70809 2.31283 3.74134
181 1 11.3197 3.02471 2.77424
203 2 10.9666 0.453177 2.52912
5 2 11.3137 3.40087 5.38766
36 2 9.31709 0.43606 7.71183
75 2 12.48 0.125195 6.59874
196 1 11.5041 0.39114 9.10608
342 2 9.65337 2.25946 10.2589
178 1 8.67127 -0.0866968 10.2581
108 2 11.4943 -0.0367761 11.6317
370 1 10.2287 2.93071 15.4493
17 2 9.89175 -0.0414612 15.0278
255 2 7.81281 2.39766 14.6419
223 1 9.52829 1.34706 12.8515
195 2 12.1896 1.81923 14.2485
222 2 8.28493 3.31926 17.5695
232 1 8.36486 0.78883 16.9419
32 2 11.0444 1.56341 17.4697
239 2 10.9522 0.144919 21.2523
364 1 9.42823 1.78056 19.6707
403 1 11.082 2.79291 21.8461
197 2 8.63271 1.93105 22.1852
423 2 11.2112 2.80606 24.0009
139 1 9.90519 0.182651 23.7231
183 2 8.70394 1.13467 25.8099
395 2 11.8435 -0.205387 24.5664
173 2 7.26066 7.03993 0.344515
20 2 9.54809 4.50583 1.42225
187 1 9.31047 4.78476 4.12478
386 2 8.48064 7.17938 3.64354
13 1 6.01722 6.77371 2.58352
11 2 6.45752 4.60673 4.39338
155 2 4.84622 7.34639 5.30592
154 1 7.38796 6.7675 5.46527
192 2 6.98498 6.90833 8.21413
132 2 9.22924 5.29074 6.7037
70 1 5.17839 8.44685 7.14096
6 2 6.08428 7.2633 14.1207
245 2 9.69551 5.61376 15.7766
368 2 10.2064 3.96154 12.9584
363 2 7.31565 6.25059 18.1596
292 1 6.08831 7.35184 16.7866
352 1 10.6465 4.23304 18.0296
233 2 5.43402 4.78024 16.0802
156 2 5.08841 8.25153 19.2462
259 1 6.04077 6.80042 20.6265
140 2 8.53174 7.59663 20.8343
280 1 8.54298 6.02377 22.2223
402 2 9.39539 4.3734 20.3648
407 2 5.87546 4.25357 20.2934
12 2 7.41208 3.90292 23.1449
113 2 6.16324 6.92673 22.8527
252 2 5.59999 11.3456 -0.0119082
55 1 5.09891 8.77156 0.365789
200 2 2.73764 9.80291 0.226132
2 2 4.42924 12.6003 5.2239
105 2 6.56222 9.47484 2.40303
266 2 2.11809 11.4529 2.89701
149 2 5.11359 11.0334 7.25325
65 2 7.56319 9.33263 6.02804
379 1 7.28779 9.71192 8.61722
163 1 4.63152 10.8341 9.81882
290 2 5.39957 8.89208 10.1167
417 2 4.70774 11.142 12.3445
398 2 3.01222 11.9578 15.474
257 2 7.22599 9.13504 16.5003
1 1 1.90252 12.4469 20.2093
413 2 4.36741 11.9808 20.2795
85 1 2.89965 11.3431 22.8297
199 1 3.9645 10.2913 25.519
330 2 4.1264 12.7648 24.9274
306 2 5.31365 10.4259 22.9042
322 1 6.66782 11.6463 24.8177
194 2 6.16258 8.79786 25.4653
212 2 3.00302 16.6221 0.516665
30 2 -1.06225 16.9988 0.846044
201 2 3.24232 14.3423 2.09069
362 2 1.3096 15.7105 4.59989
134 2 4.49107 15.4228 3.80514
166 1 2.10691 13.1502 4.16453
67 1 0.873138 16.1144 7.18529
202 1 3.48239 15.3646 6.18622
177 2 1.83183 13.5396 7.00349
57 2 3.01131 15.9915 8.99542
150 2 -0.0902018 15.5243 9.48613
172 1 5.33897 13.4787 11.5925
338 2 2.96918 12.9685 10.2554
119 2 3.49327 15.2621 12.4938
35 2 1.1526 14.6379 14.6366
268 1 3.60843 14.774 15.1308
237 2 5.57632 13.48 14.2619
136 1 2.76098 12.7362 12.9793
235 1 1.77167 13.6123 17.1373
267 2 2.37589 16.1622 17.0783
432 2 4.60332 13.8156 17.6143
129 2 -0.497624 16.9962 18.7491
272 2 3.7509 17.0031 19.3434
274 1 4.10583 14.5786 20.1239
227 2 1.4504 14.4758 19.5321
273 2 2.83783 13.9688 22.3304
430 1 5.38122 13.1672 22.5158
348 2 -0.571293 15.653 22.8075
185 2 0.135823 15.5062 25.8164
