# LAMMPS data file written by OVITO Basic 3.9.4

216 atoms
2 atom types

-6.4549291232 12.9098582463 xlo xhi
0.0 16.7703978009 ylo yhi
0.0 12.62494684 zlo zhi
-9.6823936848 0.0 0.0 xy xz yz

Masses

1 183.84  # W
2 78.96  # Se

Atoms  # atomic

1 1 -6.4549291232 0.0 3.15623671
2 2 -6.4549291232 1.8633775334 1.6116964211
3 2 -4.8411968424 0.9316887667 4.7007769989
4 1 -6.4549291232 0.0 9.46871013
5 2 -6.4549291232 1.8633775334 7.9241698411
6 2 -4.8411968424 0.9316887667 11.0132504189
7 1 -8.068661404 2.7950663001 3.15623671
8 2 -8.068661404 4.6584438336 1.6116964211
9 2 -6.4549291232 3.7267550669 4.7007769989
10 1 -8.068661404 2.7950663001 9.46871013
11 2 -8.068661404 4.6584438336 7.9241698411
12 2 -6.4549291232 3.7267550669 11.0132504189
13 1 -9.6823936848 5.5901326003 3.15623671
14 2 -9.6823936848 7.4535101337 1.6116964211
15 2 -8.068661404 6.521821367 4.7007769989
16 1 -9.6823936848 5.5901326003 9.46871013
17 2 -9.6823936848 7.4535101337 7.9241698411
18 2 -8.068661404 6.521821367 11.0132504189
19 1 -11.2961259656 8.3851989004 3.15623671
20 2 -11.2961259656 10.2485764339 1.6116964211
21 2 -9.6823936848 9.3168876672 4.7007769989
22 1 -11.2961259656 8.3851989004 9.46871013
23 2 -11.2961259656 10.2485764339 7.9241698411
24 2 -9.6823936848 9.3168876672 11.0132504189
25 1 -12.9098582463 11.1802652006 3.15623671
26 2 -12.9098582463 13.043642734 1.6116964211
27 2 -11.2961259656 12.1119539673 4.7007769989
28 1 -12.9098582463 11.1802652006 9.46871013
29 2 -12.9098582463 13.043642734 7.9241698411
30 2 -11.2961259656 12.1119539673 11.0132504189
31 1 -14.5235905271 13.9753315007 3.15623671
32 2 -14.5235905271 15.8387090342 1.6116964211
33 2 -12.9098582463 14.9070202675 4.7007769989
34 1 -14.5235905271 13.9753315007 9.46871013
35 2 -14.5235905271 15.8387090342 7.9241698411
36 2 -12.9098582463 14.9070202675 11.0132504189
37 1 -3.2274645616 0.0 3.15623671
38 2 -3.2274645616 1.8633775334 1.6116964211
39 2 -1.6137322808 0.9316887667 4.7007769989
40 1 -3.2274645616 0.0 9.46871013
41 2 -3.2274645616 1.8633775334 7.9241698411
42 2 -1.6137322808 0.9316887667 11.0132504189
43 1 -4.8411968424 2.7950663001 3.15623671
44 2 -4.8411968424 4.6584438336 1.6116964211
45 2 -3.2274645616 3.7267550669 4.7007769989
46 1 -4.8411968424 2.7950663001 9.46871013
47 2 -4.8411968424 4.6584438336 7.9241698411
48 2 -3.2274645616 3.7267550669 11.0132504189
49 1 -6.4549291232 5.5901326003 3.15623671
50 2 -6.4549291232 7.4535101337 1.6116964211
51 2 -4.8411968424 6.521821367 4.7007769989
52 1 -6.4549291232 5.5901326003 9.46871013
53 2 -6.4549291232 7.4535101337 7.9241698411
54 2 -4.8411968424 6.521821367 11.0132504189
55 1 -8.068661404 8.3851989004 3.15623671
56 2 -8.068661404 10.2485764339 1.6116964211
57 2 -6.4549291232 9.3168876672 4.7007769989
58 1 -8.068661404 8.3851989004 9.46871013
59 2 -8.068661404 10.2485764339 7.9241698411
60 2 -6.4549291232 9.3168876672 11.0132504189
61 1 -9.6823936848 11.1802652006 3.15623671
62 2 -9.6823936848 13.043642734 1.6116964211
63 2 -8.068661404 12.1119539673 4.7007769989
64 1 -9.6823936848 11.1802652006 9.46871013
65 2 -9.6823936848 13.043642734 7.9241698411
66 2 -8.068661404 12.1119539673 11.0132504189
67 1 -11.2961259656 13.9753315007 3.15623671
68 2 -11.2961259656 15.8387090342 1.6116964211
69 2 -9.6823936848 14.9070202675 4.7007769989
70 1 -11.2961259656 13.9753315007 9.46871013
71 2 -11.2961259656 15.8387090342 7.9241698411
72 2 -9.6823936848 14.9070202675 11.0132504189
73 1 4.4408920985e-16 0.0 3.15623671
74 2 4.4408920985e-16 1.8633775334 1.6116964211
75 2 1.6137322808 0.9316887667 4.7007769989
76 1 4.4408920985e-16 0.0 9.46871013
77 2 4.4408920985e-16 1.8633775334 7.9241698411
78 2 1.6137322808 0.9316887667 11.0132504189
79 1 -1.6137322808 2.7950663001 3.15623671
80 2 -1.6137322808 4.6584438336 1.6116964211
81 2 4.4408920985e-16 3.7267550669 4.7007769989
82 1 -1.6137322808 2.7950663001 9.46871013
83 2 -1.6137322808 4.6584438336 7.9241698411
84 2 4.4408920985e-16 3.7267550669 11.0132504189
85 1 -3.2274645616 5.5901326003 3.15623671
86 2 -3.2274645616 7.4535101337 1.6116964211
87 2 -1.6137322808 6.521821367 4.7007769989
88 1 -3.2274645616 5.5901326003 9.46871013
89 2 -3.2274645616 7.4535101337 7.9241698411
90 2 -1.6137322808 6.521821367 11.0132504189
91 1 -4.8411968424 8.3851989004 3.15623671
92 2 -4.8411968424 10.2485764339 1.6116964211
93 2 -3.2274645616 9.3168876672 4.7007769989
94 1 -4.8411968424 8.3851989004 9.46871013
95 2 -4.8411968424 10.2485764339 7.9241698411
96 2 -3.2274645616 9.3168876672 11.0132504189
97 1 -6.4549291232 11.1802652006 3.15623671
98 2 -6.4549291232 13.043642734 1.6116964211
99 2 -4.8411968424 12.1119539673 4.7007769989
100 1 -6.4549291232 11.1802652006 9.46871013
101 2 -6.4549291232 13.043642734 7.9241698411
102 2 -4.8411968424 12.1119539673 11.0132504189
103 1 -8.068661404 13.9753315007 3.15623671
104 2 -8.068661404 15.8387090342 1.6116964211
105 2 -6.4549291232 14.9070202675 4.7007769989
106 1 -8.068661404 13.9753315007 9.46871013
107 2 -8.068661404 15.8387090342 7.9241698411
108 2 -6.4549291232 14.9070202675 11.0132504189
109 1 3.2274645616 0.0 3.15623671
110 2 3.2274645616 1.8633775334 1.6116964211
111 2 4.8411968424 0.9316887667 4.7007769989
112 1 3.2274645616 0.0 9.46871013
113 2 3.2274645616 1.8633775334 7.9241698411
114 2 4.8411968424 0.9316887667 11.0132504189
115 1 1.6137322808 2.7950663001 3.15623671
116 2 1.6137322808 4.6584438336 1.6116964211
117 2 3.2274645616 3.7267550669 4.7007769989
118 1 1.6137322808 2.7950663001 9.46871013
119 2 1.6137322808 4.6584438336 7.9241698411
120 2 3.2274645616 3.7267550669 11.0132504189
121 1 8.881784197e-16 5.5901326003 3.15623671
122 2 1.3322676296e-15 7.4535101337 1.6116964211
123 2 1.6137322808 6.521821367 4.7007769989
124 1 8.881784197e-16 5.5901326003 9.46871013
125 2 1.3322676296e-15 7.4535101337 7.9241698411
126 2 1.6137322808 6.521821367 11.0132504189
127 1 -1.6137322808 8.3851989004 3.15623671
128 2 -1.6137322808 10.2485764339 1.6116964211
129 2 1.7763568394e-15 9.3168876672 4.7007769989
130 1 -1.6137322808 8.3851989004 9.46871013
131 2 -1.6137322808 10.2485764339 7.9241698411
132 2 1.7763568394e-15 9.3168876672 11.0132504189
133 1 -3.2274645616 11.1802652006 3.15623671
134 2 -3.2274645616 13.043642734 1.6116964211
135 2 -1.6137322808 12.1119539673 4.7007769989
136 1 -3.2274645616 11.1802652006 9.46871013
137 2 -3.2274645616 13.043642734 7.9241698411
138 2 -1.6137322808 12.1119539673 11.0132504189
139 1 -4.8411968424 13.9753315007 3.15623671
140 2 -4.8411968424 15.8387090342 1.6116964211
141 2 -3.2274645616 14.9070202675 4.7007769989
142 1 -4.8411968424 13.9753315007 9.46871013
143 2 -4.8411968424 15.8387090342 7.9241698411
144 2 -3.2274645616 14.9070202675 11.0132504189
145 1 6.4549291232 8.881784197e-16 3.15623671
146 2 6.4549291232 1.8633775334 1.6116964211
147 2 8.068661404 0.9316887667 4.7007769989
148 1 6.4549291232 8.881784197e-16 9.46871013
149 2 6.4549291232 1.8633775334 7.9241698411
150 2 8.068661404 0.9316887667 11.0132504189
151 1 4.8411968424 2.7950663001 3.15623671
152 2 4.8411968424 4.6584438336 1.6116964211
153 2 6.4549291232 3.7267550669 4.7007769989
154 1 4.8411968424 2.7950663001 9.46871013
155 2 4.8411968424 4.6584438336 7.9241698411
156 2 6.4549291232 3.7267550669 11.0132504189
157 1 3.2274645616 5.5901326003 3.15623671
158 2 3.2274645616 7.4535101337 1.6116964211
159 2 4.8411968424 6.521821367 4.7007769989
160 1 3.2274645616 5.5901326003 9.46871013
161 2 3.2274645616 7.4535101337 7.9241698411
162 2 4.8411968424 6.521821367 11.0132504189
163 1 1.6137322808 8.3851989004 3.15623671
164 2 1.6137322808 10.2485764339 1.6116964211
165 2 3.2274645616 9.3168876672 4.7007769989
166 1 1.6137322808 8.3851989004 9.46871013
167 2 1.6137322808 10.2485764339 7.9241698411
168 2 3.2274645616 9.3168876672 11.0132504189
169 1 1.7763568394e-15 11.1802652006 3.15623671
170 2 1.7763568394e-15 13.043642734 1.6116964211
171 2 1.6137322808 12.1119539673 4.7007769989
172 1 1.7763568394e-15 11.1802652006 9.46871013
173 2 1.7763568394e-15 13.043642734 7.9241698411
174 2 1.6137322808 12.1119539673 11.0132504189
175 1 -1.6137322808 13.9753315007 3.15623671
176 2 -1.6137322808 15.8387090342 1.6116964211
177 2 1.3322676296e-15 14.9070202675 4.7007769989
178 1 -1.6137322808 13.9753315007 9.46871013
179 2 -1.6137322808 15.8387090342 7.9241698411
180 2 1.3322676296e-15 14.9070202675 11.0132504189
181 1 9.6823936848 1.7763568394e-15 3.15623671
182 2 9.6823936848 1.8633775334 1.6116964211
183 2 11.2961259656 0.9316887667 4.7007769989
184 1 9.6823936848 1.7763568394e-15 9.46871013
185 2 9.6823936848 1.8633775334 7.9241698411
186 2 11.2961259656 0.9316887667 11.0132504189
187 1 8.068661404 2.7950663001 3.15623671
188 2 8.068661404 4.6584438336 1.6116964211
189 2 9.6823936848 3.7267550669 4.7007769989
190 1 8.068661404 2.7950663001 9.46871013
191 2 8.068661404 4.6584438336 7.9241698411
192 2 9.6823936848 3.7267550669 11.0132504189
193 1 6.4549291232 5.5901326003 3.15623671
194 2 6.4549291232 7.4535101337 1.6116964211
195 2 8.068661404 6.521821367 4.7007769989
196 1 6.4549291232 5.5901326003 9.46871013
197 2 6.4549291232 7.4535101337 7.9241698411
198 2 8.068661404 6.521821367 11.0132504189
199 1 4.8411968424 8.3851989004 3.15623671
200 2 4.8411968424 10.2485764339 1.6116964211
201 2 6.4549291232 9.3168876672 4.7007769989
202 1 4.8411968424 8.3851989004 9.46871013
203 2 4.8411968424 10.2485764339 7.9241698411
204 2 6.4549291232 9.3168876672 11.0132504189
205 1 3.2274645616 11.1802652006 3.15623671
206 2 3.2274645616 13.043642734 1.6116964211
207 2 4.8411968424 12.1119539673 4.7007769989
208 1 3.2274645616 11.1802652006 9.46871013
209 2 3.2274645616 13.043642734 7.9241698411
210 2 4.8411968424 12.1119539673 11.0132504189
211 1 1.6137322808 13.9753315007 3.15623671
212 2 1.6137322808 15.8387090342 1.6116964211
213 2 3.2274645616 14.9070202675 4.7007769989
214 1 1.6137322808 13.9753315007 9.46871013
215 2 1.6137322808 15.8387090342 7.9241698411
216 2 3.2274645616 14.9070202675 11.0132504189
