ITEM: TIMESTEP
1600000
ITEM: NUMBER OF ATOMS
432
ITEM: BOX BOUNDS xy xz yz pp pp pp
-1.0121394592771651e+01 1.9456269418317312e+01 -9.8597046634168670e+00
-2.2707261731803075e-01 1.6850036533585339e+01 3.9488962566154176e-05
-5.4418704720346156e-02 2.4376916224520301e+01 -8.3732565440012754e-08
ITEM: ATOMS id type q x y z
354 2 0.0231263 2.07292 0.792768 1.67416
396 2 0.0214852 -0.360193 2.66165 1.25413
122 1 -0.047567 1.78009 3.40692 2.42417
392 1 -0.0460616 -0.206681 0.0068455 0.722505
4 2 0.0237455 -0.154115 3.22055 4.35549
21 2 0.0239523 2.73157 1.95936 4.51085
169 1 -0.0462237 0.401943 0.827646 3.72655
68 1 -0.0456114 0.833477 1.86752 6.67102
275 2 0.0232305 -0.976205 1.91197 8.69132
41 2 0.0241697 1.86123 0.449601 8.70588
84 2 0.0234743 4.37443 0.153867 6.65861
170 1 -0.0452127 -0.0157529 0.526177 10.8654
78 2 0.0232776 2.43797 1.42062 11.6476
323 2 0.0227464 -0.316511 3.08958 11.6161
98 1 -0.0457268 1.45921 2.90706 9.5579
247 1 -0.0461701 0.66897 1.52218 13.7632
6 2 0.0228174 0.188089 3.88384 14.6721
427 1 -0.0462176 2.0459 3.90447 12.5088
255 2 0.0232235 3.06943 2.48524 14.6371
386 1 -0.0451875 1.30686 2.52937 16.7042
426 2 0.0236462 -1.08609 1.3604 16.1199
428 1 -0.042481 0.0957544 -0.0341684 17.934
250 2 0.0249559 1.74334 -0.00482105 15.8941
296 1 -0.0471195 1.85793 3.58894 19.6527
399 2 0.024228 2.21867 1.03277 18.9389
270 2 0.0260435 -0.690757 2.50981 19.1937
254 1 -0.0446519 0.665766 1.30294 21.1627
175 1 -0.048807 1.49081 2.62445 23.8457
291 2 0.0206775 0.350488 3.90672 21.9437
288 2 0.0201504 3.09488 2.34728 21.6428
215 2 0.0198764 -1.03039 7.1716 2.02702
193 1 -0.0476024 -3.34633 5.89906 2.00535
119 2 0.020614 -2.01689 5.06052 0.0262898
414 2 0.0171993 1.08419 5.36858 0.377346
368 1 -0.0460009 -2.4013 7.50819 4.36776
22 2 0.0236481 -2.02161 5.07985 4.18405
202 2 0.021849 1.16738 5.89234 3.55759
144 2 0.0252231 -1.41283 7 6.85267
207 2 0.0245702 -2.26465 4.73703 8.94978
42 2 0.0242554 0.378705 4.32345 7.25482
120 2 0.0235505 1.08917 5.42222 10.148
239 2 0.025279 -1.34575 6.48199 11.5492
117 2 0.0302993 -3.94119 8.32719 11.2019
182 1 -0.041577 -2.51072 7.29414 9.17321
326 1 -0.042919 -3.0499 7.19607 13.5761
376 2 0.0240275 -2.60662 4.31944 13.4395
238 2 0.0239492 0.743486 4.97298 17.636
287 2 0.0233642 -1.49879 6.33759 15.5918
302 1 -0.0453357 -2.99322 6.65562 17.7793
411 2 0.0234197 -0.403813 8.01994 18.1277
364 2 0.0256823 -4.55591 7.5047 15.7373
372 2 0.0237049 -1.6353 5.60508 19.7716
46 2 0.0227385 -4.36599 7.12306 20.0689
79 1 -0.0467192 -2.0108 8.41825 20.1948
71 2 0.0189859 -0.899091 7.11254 22.449
332 1 -0.0477534 -2.8832 6.22393 22.2474
161 2 0.0229366 -5.04352 11.3525 2.45613
380 1 -0.0477659 -1.53442 9.70775 2.52905
40 2 0.0211622 -2.62757 10.7218 0.497168
139 1 -0.0450505 -6.16205 12.6415 -0.0104413
3 2 0.0211694 -3.84777 8.46043 2.32666
111 2 0.0243749 -2.91367 9.93648 4.97601
153 2 0.0243249 -4.52602 12.4498 5.419
158 1 -0.0447987 -6.44831 12.148 7.15875
110 1 -0.0436748 -1.33822 9.15823 6.98053
131 2 0.026399 -5.73036 9.66328 6.23173
331 1 -0.0428397 -1.96474 9.16411 11.5292
216 2 0.0290012 -5.05923 10.9856 9.17161
154 2 0.0243384 -0.452657 8.82816 9.53418
317 2 0.0246958 -3.27842 9.79695 14.0331
148 2 0.0254805 -4.93117 11.6942 12.4066
134 1 -0.0481099 -6.61896 11.6323 14.4565
341 2 0.0224556 -0.445308 8.62068 13.569
362 1 -0.0466455 -1.87146 8.81305 15.9725
322 2 0.0209396 -5.39266 10.8452 16.0412
413 2 0.0238065 -2.22494 11.7401 16.2738
279 2 0.0231457 -3.37813 9.28376 18.0177
352 2 0.0237805 -2.29614 11.2938 20.3348
357 2 0.023419 -5.32678 11.2194 19.3186
82 2 0.0209304 -3.32461 9.15563 22.33
191 2 0.0240092 -4.52697 12.2991 22.2097
113 2 0.0221006 -5.77959 10.1538 24.0099
410 1 -0.0478913 -1.36157 10.0383 22.78
173 2 0.0245543 -6.55463 15.1457 0.805367
16 2 0.0233119 -3.80952 13.5714 0.674438
248 1 -0.0456918 -5.65913 13.6779 2.88084
406 2 0.0231711 -8.52913 16.4823 5.78985
294 2 0.0237332 -6.13234 16.087 3.77722
102 2 0.0227368 -7.50842 13.521 4.99992
104 1 -0.0458319 -5.31116 14.7217 5.8189
167 2 0.0234757 -6.79962 14.5596 7.92471
325 1 -0.0453202 -4.6284 15.6169 8.82059
141 2 0.024151 -6.40932 15.6168 10.9388
54 2 0.0270339 -3.66044 14.0411 10.7088
307 1 -0.0440208 -6.04907 13.2171 10.0487
12 2 0.0246743 -8.79969 16.0311 13.0017
223 1 -0.0450569 -5.52513 14.1845 12.9525
381 2 0.0239239 -5.71137 16.6826 13.8765
394 2 0.0234403 -7.7641 13.0614 12.2072
373 1 -0.0450175 -4.82587 15.2442 15.9629
172 2 0.0246558 -6.60704 15.2776 18.0769
297 2 0.023746 -3.96092 13.633 17.8728
379 1 -0.0467126 -6.41251 12.8137 17.4116
387 2 0.0222073 -6.99337 14.0116 15.1695
187 1 -0.0450069 -5.50373 13.8621 20.2172
244 2 0.0227965 -5.7526 16.4864 20.8394
10 2 0.0250125 -7.17832 14.0638 22.3174
230 1 -0.0454515 -4.66403 14.9697 22.9865
36 2 0.0238116 -8.23781 17.038 23.0886
51 2 0.0245828 5.12156 1.40701 2.35957
159 2 0.0200729 3.40311 3.22767 0.158694
91 1 -0.0465442 6.91383 1.4306 0.27217
64 2 0.021551 6.39906 4.00602 1.0847
227 2 0.0239198 8.0198 0.113809 2.20601
197 2 0.0247496 5.73923 2.58359 5.27055
360 2 0.0228618 8.36993 0.706032 5.27105
49 1 -0.0447422 7.3794 2.4616 3.20086
151 1 -0.0460665 6.0505 0.0520873 4.51866
92 1 -0.0461813 6.77521 0.840011 7.48021
147 2 0.022599 6.25962 3.2929 8.26323
180 2 0.0232093 3.24689 2.95903 7.45734
45 2 0.0226343 4.90171 0.908757 9.64372
337 1 -0.0452767 7.28612 1.83265 10.4902
419 2 0.0222582 3.83422 3.98622 10.4087
156 2 0.0231614 5.5455 1.98836 12.4834
39 2 0.0297106 8.18186 0.300276 12.6449
218 1 -0.043646 6.57934 0.512295 14.6807
243 2 0.0225072 4.81283 0.653498 16.7783
356 1 -0.0484647 7.31387 1.64204 17.4946
257 2 0.0220589 3.63487 3.50145 17.5768
318 2 0.0236936 6.10708 3.07655 15.3503
185 2 0.0185175 5.60753 1.85988 19.6164
336 2 0.018722 8.18299 -0.0290678 19.3919
305 2 0.0146046 8.00963 2.61462 20.2595
209 2 0.0175751 6.16323 2.92924 22.5362
17 2 0.0225623 4.70887 0.432736 23.7444
73 1 -0.0486648 6.55637 0.23926 21.5854
32 1 -0.050978 2.93539 6.22155 1.1136
125 2 0.017752 2.63228 8.15818 2.08771
44 1 -0.0472464 3.40865 6.97143 4.28975
211 1 -0.0457609 2.22852 4.3858 5.40398
5 2 0.0224005 4.01701 4.70612 2.98697
217 1 -0.0458044 2.88622 5.44412 8.25345
361 1 -0.0459923 3.97085 8.11195 7.16513
303 2 0.024257 1.79057 6.98069 6.43691
198 2 0.0239017 4.60391 5.51272 6.04414
50 1 -0.0463072 3.31523 6.44196 11.2529
63 2 0.0227914 6.82167 4.45372 11.1121
65 2 0.0236762 2.28075 8.1789 9.29437
129 2 0.0231771 5.07982 6.60351 8.96125
405 2 0.0229499 4.40009 5.04076 13.2815
259 1 -0.0460698 3.83297 7.40919 14.2129
155 2 0.0227307 1.47015 6.32692 13.2155
138 2 0.02398 4.93454 5.98424 16.1927
377 2 0.0235045 2.10137 7.41761 16.1925
272 1 -0.0447572 4.48402 8.35436 17.1048
284 1 -0.0457372 2.5184 4.90892 15.5195
304 2 0.0187764 4.1878 4.56366 20.5153
429 2 0.0220312 5.55796 6.94097 19.1097
118 2 0.0207283 1.39678 6.01129 20.6609
374 1 -0.046483 3.11464 5.9719 18.499
18 2 0.017193 4.34998 5.28451 23.4781
309 2 0.0161368 2.6195 7.88808 23.2182
403 1 -0.050435 3.62456 7.05825 21.5765
124 2 0.0215854 1.09239 10.7776 2.66337
205 1 -0.0468271 -0.305423 11.7344 0.642188
256 2 0.0186138 -0.00953916 8.95423 0.334461
306 2 0.0153133 3.74868 10.2022 0.614577
11 2 0.0215244 3.23835 9.36272 5.0561
62 1 -0.0456161 -0.327277 11.2897 5.00319
190 2 0.0226694 2.13613 12.3754 5.22408
76 2 0.0235858 0.0035106 8.71622 4.62884
77 2 0.022909 -1.71073 12.2511 3.11444
88 2 0.0242145 0.943485 10.3361 7.24122
358 2 0.025707 -2.00718 11.7934 7.35337
389 2 0.0239558 1.54586 11.7865 10.0317
140 1 -0.0439535 -0.745132 10.9317 9.38697
106 2 0.0271619 -1.8719 11.6693 11.7136
313 1 -0.0448918 -1.04574 11.1582 14.117
258 2 0.0239301 1.30019 11.547 13.3141
90 2 0.0223515 2.75822 8.98962 12.2565
400 2 0.0226256 0.542515 10.2094 16.0497
371 2 0.0236208 3.43997 10.0815 15.2131
53 2 0.0224609 0.334603 9.50069 20.7875
416 1 -0.0444538 0.173104 12.1892 20.887
369 2 0.0253268 1.47313 11.5583 18.7183
340 2 0.0237102 2.75412 8.4282 19.1883
67 1 -0.0456828 -0.870677 10.6387 18.3348
75 2 0.0212202 1.35684 11.2327 23.1453
83 2 0.0244407 -0.477699 14.3247 1.13285
271 1 -0.0455774 -4.14497 16.0619 1.46165
330 2 0.0225656 -3.28978 14.7626 3.63906
189 2 0.0231583 -0.632831 13.9623 5.48765
152 1 -0.0459604 0.930184 13.411 3.13923
165 2 0.0232351 -3.02567 15.2598 6.80318
301 1 -0.0454476 0.539898 12.9496 7.48472
298 2 0.0234961 0.44703 15.8944 7.68782
233 2 0.0272723 -0.837084 13.8221 9.58635
86 1 -0.0441339 -3.9044 16.4901 11.7879
69 2 0.0257105 -2.12539 16.5947 9.53311
343 1 -0.0421185 0.23996 12.9883 11.9506
335 2 0.029182 -0.830209 13.7663 14.2135
8 1 -0.0375416 -0.011547 16.0219 12.6372
137 2 0.0277176 -3.26546 14.6665 13.9151
94 2 0.0253349 -2.34697 16.0563 16.5222
14 1 -0.0440986 0.258613 12.8069 16.4552
234 2 0.0231208 0.123629 15.0859 21.0212
229 1 -0.0474379 -3.99819 16.2764 18.7924
375 2 0.0233169 -3.05274 14.6815 20.8097
321 2 0.024345 -0.965116 13.5373 18.559
95 2 0.0238354 -2.35403 16.0368 23.7079
55 1 -0.0450738 1.14824 13.8675 23.2321
89 2 0.0245049 -1.36843 12.8953 22.859
24 2 0.0242919 11.5847 1.20407 1.81104
312 2 0.0209067 9.20228 2.62103 0.628155
384 2 0.0236858 9.73855 3.30475 3.91446
59 2 0.0223502 11.4734 0.971842 5.84609
19 1 -0.0450894 12.9577 0.176561 3.82687
99 2 0.0222605 9.15376 1.90915 8.10177
423 2 0.0199247 12.4437 2.15004 8.63772
367 1 -0.0484778 12.5651 0.023298 8.22491
37 1 -0.0457411 8.16162 3.2863 6.07534
395 2 0.0267447 9.614 2.9101 11.1121
231 2 0.0259773 10.876 0.0700137 10.5227
93 2 0.0280058 12.303 2.16273 12.3544
344 1 -0.0445071 13.557 1.07087 14.4665
85 1 -0.0372228 10.9553 2.27649 14.8361
397 1 -0.0419653 7.97574 2.93397 13.3441
274 2 0.0241615 12.1748 1.32291 16.9822
281 2 0.0284963 9.00381 1.7086 15.449
346 2 0.0186225 9.69527 2.69853 18.3958
237 2 0.0186579 12.069 1.27468 21.6194
224 1 -0.0456736 12.9812 0.668601 23.9128
408 2 0.0176807 8.90165 1.35159 22.1453
265 1 -0.0519664 8.00734 3.86156 23.1614
163 1 -0.0480932 8.70258 4.96721 1.85339
269 2 0.0200661 10.8097 5.21282 1.49823
28 2 0.0160018 5.60252 7.47253 0.775825
422 1 -0.0458779 9.3225 5.83105 4.94189
52 2 0.0193065 5.62438 7.58492 3.24131
178 2 0.0242968 7.07465 5.03875 4.00504
136 2 0.020169 8.79581 7.45985 2.94486
355 1 -0.0455585 9.80358 6.79697 7.8873
35 2 0.0238369 7.58421 5.84966 6.97384
310 2 0.0225055 10.5306 4.49602 6.84762
130 2 0.0218234 9.40908 8.194 5.92791
123 2 0.0232327 8.09625 6.95597 9.87877
195 2 0.0255671 10.9215 5.50819 9.98121
385 1 -0.0438304 9.01075 5.54331 11.8499
166 2 0.0228077 5.65711 7.63113 11.9095
43 1 -0.046748 8.57961 4.2971 9.00569
295 1 -0.0434162 9.67468 6.59584 14.7161
388 2 0.0249243 7.39619 5.57776 13.9459
48 2 0.0227564 9.31122 8.10095 12.7077
280 2 0.0308822 10.3654 4.44427 13.6461
263 2 0.0240876 8.15703 6.70251 16.7101
100 2 0.026689 10.9624 5.12975 16.6153
319 1 -0.0438531 8.52781 4.16706 16.2035
240 2 0.0202685 6.88173 4.22377 18.1418
308 1 -0.0512352 8.88186 4.98047 19.6185
351 2 0.0203731 9.04095 7.72812 19.4403
345 2 0.0161537 7.43493 5.46176 21.0843
219 2 0.0156842 5.92578 7.79442 22.1637
293 2 0.0167236 9.30496 7.80714 22.5054
208 2 0.0161014 8.06786 6.30406 24.1017
112 2 0.0140397 10.1731 4.12973 21.7877
81 2 0.0159388 7.04346 10.1054 1.80831
87 2 0.0181359 4.25144 11.3254 2.82429
206 1 -0.0503016 5.53811 9.58721 4.03121
145 1 -0.0506667 6.63044 12.3266 3.28193
210 2 0.0190352 7.81832 10.6571 4.90816
96 2 0.0189085 5.18724 12.2611 5.66084
116 1 -0.0494805 6.19309 10.985 7.05914
267 2 0.0217677 3.93292 10.4894 8.0352
126 2 0.0210121 6.1137 8.44011 6.29307
204 2 0.0223998 4.46785 11.3813 11.094
31 1 -0.0473802 6.81106 11.6372 10.2352
186 2 0.0213986 6.71272 9.50307 9.22919
2 1 -0.0461654 4.39655 9.07557 10.1437
164 1 -0.0461527 5.00529 10.005 13.084
286 2 0.0240607 5.21796 12.4219 14.0729
220 2 0.0221633 7.39983 10.1934 12.399
407 2 0.0230977 6.24255 8.52234 14.8618
391 1 -0.0449186 5.72863 10.9109 15.9845
57 2 0.023721 7.01581 9.43989 17.7831
338 1 -0.0476985 5.24803 9.21654 20.115
418 2 0.0195718 7.48847 10.2449 20.7787
290 1 -0.0446688 6.55025 11.7641 18.8684
300 2 0.0256021 4.24431 10.9978 18.1621
402 2 0.0157004 7.75372 10.6172 23.2595
103 1 -0.0546438 5.32386 9.73591 23.7411
222 2 0.0170429 5.23549 12.4105 23.4332
183 2 0.0190418 3.91081 10.1918 21.5691
157 1 -0.0453966 2.10489 15.5813 1.29147
72 2 0.0186907 5.52617 13.5706 1.22184
107 2 0.0239877 4.56955 16.7643 1.56956
347 2 0.0213367 2.4828 13.1019 0.907982
108 2 0.0227611 3.45695 14.6166 3.55471
1 1 -0.0464053 1.88351 15.0576 5.65977
179 2 0.0235991 0.603137 16.0423 3.58313
401 2 0.0219895 2.88911 13.8145 7.90373
359 2 0.021676 4.15108 16.1676 6.23167
135 2 0.0199419 5.59767 13.0412 8.61639
365 2 0.0199884 3.96778 15.9059 9.89927
200 1 -0.0444947 1.63625 14.6711 9.95289
382 2 0.0218749 6.19033 14.0079 11.5578
105 2 0.0246501 4.08832 15.4975 14.5325
235 1 -0.0415282 1.66968 14.3754 14.4182
228 2 0.0305119 1.20629 16.8729 14.1286
241 1 -0.0447746 2.88847 16.5041 12.138
60 2 0.0247905 2.948 13.8824 12.0812
56 1 -0.043347 2.84097 15.8238 16.9084
316 2 0.0262296 5.95069 13.5427 17.0633
370 2 0.0264408 2.80924 13.2206 16.4409
276 2 0.0259478 0.70546 15.5852 16.9321
398 1 -0.040924 5.32907 15.0826 19.1393
101 2 0.0239456 3.38556 15.8891 19.464
252 2 0.0233392 5.91362 13.136 20.6717
266 1 -0.0442012 1.54763 14.111 18.9512
378 2 0.0250158 2.76583 13.2117 21.149
196 2 0.023355 0.775747 16.5288 23.7399
264 2 0.0237391 3.76413 15.2865 23.3406
7 1 -0.045451 2.45514 15.9071 21.3539
27 2 0.0240517 16.4193 3.03929 2.06687
97 1 -0.0448039 13.9833 2.33017 1.78958
70 2 0.022761 17.8737 0.213062 2.61927
350 1 -0.0453324 15.2497 3.94124 4.1893
15 2 0.0241764 15.3174 1.15808 4.23747
424 2 0.0228076 18.1946 0.706618 5.65417
30 2 0.0241599 12.8124 3.13648 4.06368
421 1 -0.0474632 15.1929 3.24095 8.62238
245 2 0.0197054 15.3985 1.11514 8.31928
174 2 0.0235012 16.6513 3.15743 6.3861
20 1 -0.0474249 13.8594 1.97374 6.22553
273 2 0.0212677 16.2789 2.45792 11.0007
47 2 0.021952 15.805 2.01248 15.0114
425 2 0.0210298 18.0266 0.579765 13.0631
277 1 -0.0436902 14.5945 3.38675 12.9075
114 2 0.0201048 15.0337 0.47923 12.3092
58 2 0.0289698 13.2267 3.80667 15.1589
283 1 -0.0456974 14.4679 2.8008 17.3363
285 2 0.0240292 16.9293 3.82205 17.3619
333 2 0.025468 15.1583 -0.139559 17.1441
232 2 0.0247979 15.4602 1.83548 19.6081
324 2 0.019488 12.6946 3.30026 19.3999
320 1 -0.0407048 17.7661 0.376827 19.9478
199 1 -0.046828 14.1723 2.74017 21.7893
143 2 0.025505 18.4371 1.25177 22.9624
282 2 0.0248646 16.9024 3.59925 21.8337
430 2 0.0257784 15.3908 1.51976 23.7053
34 2 0.0210568 12.6418 3.24617 24.1147
314 1 -0.0480544 10.9857 7.6026 2.43119
213 2 0.0223955 13.9733 5.11388 1.97674
363 2 0.0201736 12.6034 7.4324 0.268434
348 2 0.0237836 14.9516 6.56673 4.75647
142 2 0.0229471 11.6985 6.26248 4.44448
353 2 0.0260092 12.2183 7.22625 7.4657
33 2 0.0232337 13.7998 4.53752 6.87926
80 1 -0.0443547 16.255 5.50009 6.61846
299 2 0.0294062 15.2717 7.45948 8.03032
415 1 -0.0437791 10.6678 7.90296 10.6917
253 1 -0.0428875 16.1487 5.11507 11.1791
289 1 -0.0372952 14.1391 7.18696 10.481
339 2 0.0260556 13.7088 4.37853 10.4345
268 2 0.0310984 14.3594 6.12648 12.9518
349 1 -0.0371029 12.1797 5.43816 14.2214
23 2 0.0246893 14.1602 5.38661 17.753
61 1 -0.0457776 10.6086 7.09715 17.3554
242 1 -0.0434369 15.5273 4.94362 15.4004
177 2 0.0239594 11.8799 7.91151 15.1902
260 1 -0.0488437 11.087 7.69288 20.3422
278 1 -0.0457292 15.7162 4.52362 19.686
29 2 0.0196235 11.3361 5.41871 19.1686
292 2 0.0223295 12.8654 8.28303 18.2139
246 2 0.0179866 11.8222 6.02288 22.2056
311 2 0.0201179 14.0725 4.874 21.7979
315 2 0.02032 15.145 6.95421 24.1375
115 1 -0.046614 15.2764 4.27753 24.1824
160 2 0.0186019 8.43849 12.1773 1.25826
327 2 0.0242358 11.7408 12.5932 2.03636
38 1 -0.0465957 12.1016 10.1588 1.31529
390 2 0.0187916 9.89357 9.1211 0.629414
366 2 0.0218405 10.4622 10.0841 3.55355
74 1 -0.0457216 11.7607 8.57735 5.37484
149 2 0.0224405 13.3125 8.62519 3.18816
236 1 -0.0459189 12.8811 11.1234 4.31393
133 1 -0.0427528 12.4473 9.62393 8.42984
383 2 0.0198921 8.45988 11.8082 7.95214
66 2 0.02179 11.0559 10.8847 6.47585
9 2 0.0227828 9.96995 9.24777 9.02561
328 2 0.0230475 9.0096 12.5206 11.13
188 1 -0.0437206 12.7388 10.7076 11.3052
192 2 0.0238373 11.5316 12.0252 9.33506
261 2 0.0278223 12.6459 8.63402 10.9105
412 2 0.0199578 11.6085 10.2292 13.7379
146 1 -0.0457724 7.49848 12.5524 13.2962
225 2 0.0196855 11.2909 11.1948 16.8141
334 2 0.0221964 8.14198 11.1865 15.414
393 2 0.0211134 10.5271 10.2443 20.638
181 1 -0.04738 12.1414 10.3161 18.6275
132 2 0.0239416 8.73928 12.2484 18.5461
262 2 0.0224352 11.0735 11.5395 23.487
13 1 -0.0486643 11.4783 9.05659 23.0122
249 2 0.0219485 13.2762 8.85286 21.2855
109 1 -0.0455743 12.8266 11.4771 21.5696
194 1 -0.048166 8.11575 14.6783 2.19331
251 2 0.023077 10.5298 15.3948 2.96976
162 2 0.0236015 10.1077 14.5477 -0.018831
168 2 0.0206353 6.4943 14.781 4.08655
127 1 -0.0478723 8.73394 15.3136 5.19206
214 2 0.0207208 9.08336 12.9236 4.24487
184 2 0.0215187 9.83155 13.9277 7.15598
128 1 -0.0463935 9.18863 16.4602 7.96566
150 2 0.0203505 7.02881 15.3741 7.14873
329 2 0.0248089 10.2873 15.0701 10.05
221 2 0.0213019 7.43423 16.5374 10.1349
26 1 -0.04766 7.87494 14.1248 9.1498
431 2 0.023475 9.70243 13.4869 14.1959
171 2 0.0230339 7.01421 15.1549 14.5131
176 1 -0.0449527 9.31835 16.0617 14.9997
212 1 -0.0456188 8.53503 15.123 12.1306
417 2 0.0258156 10.113 14.6283 17.1793
404 1 -0.0440229 7.99251 13.5568 16.2979
203 2 0.0273788 7.49784 16.3119 18.1541
409 1 -0.0430038 8.05837 14.4495 19.7954
420 2 0.0265011 10.1746 15.8408 20.2801
226 2 0.0242005 11.698 12.8926 19.5259
25 1 -0.0442636 9.03053 15.7771 22.5327
201 2 0.0231463 7.15839 15.8573 24.3672
121 1 -0.0499618 7.69577 13.1757 23.991
342 2 0.0279356 6.35928 16.099 21.3592
432 2 0.0222025 8.94721 13.3287 21.7838
