ITEM: TIMESTEP
1600000
ITEM: NUMBER OF ATOMS
432
ITEM: BOX BOUNDS xy xz yz pp pp pp
-1.6948106840524041e+01 1.3571952584579803e+01 -9.8310833790443226e+00
-5.3479637842835892e-01 1.7305194179328456e+01 0.0000000000000000e+00
-1.0888328053573950e+00 2.6338726485357192e+01 0.0000000000000000e+00
ITEM: ATOMS id type q x y z
147 2 0.0292664 -5.47883 1.95303 -0.135135
169 1 -0.0403922 -7.45931 1.20532 1.3746
88 1 -0.0416014 -3.13609 1.1626 1.08254
406 1 -0.0445824 -5.56921 -0.222097 -0.366152
9 2 0.0249131 -7.2605 3.93417 1.51943
153 2 0.0270342 -5.22759 -0.0365368 2.22883
141 2 0.0245074 -7.15264 1.76811 3.94956
109 1 -0.0412495 -5.06464 2.76945 2.68569
63 2 0.0219941 -4.74129 3.32162 5.41476
426 2 0.0181804 -8.03374 2.19133 9.04052
33 2 0.0160055 -5.41747 0.914655 9.35727
224 2 0.0200523 -6.48196 2.46972 11.9278
184 1 -0.0466723 -8.64839 2.45996 11.6075
167 2 0.0211757 -4.04151 0.537237 12.6254
204 2 0.0205511 -3.2063 0.797265 15.7693
261 2 0.0184841 -4.58272 0.657702 17.9824
383 2 0.0237611 -8.13735 2.96089 19.7155
282 2 0.0209757 -7.05314 1.48861 22.245
211 1 -0.0436994 -6.76373 1.78037 24.354
191 2 0.0222886 -5.35886 0.146496 24.5994
86 2 0.0225489 -4.22805 2.74392 23.2699
265 1 -0.0436834 -4.12721 2.8004 25.7812
89 2 0.0252455 -9.07691 5.83033 3.32141
83 2 0.0234339 -6.80674 7.36452 4.8762
190 1 -0.0446604 -7.04667 4.44433 4.37686
331 1 -0.0418645 -11.2763 7.85502 7.50682
421 1 -0.042433 -9.08202 6.0874 5.94709
87 2 0.024504 -6.95595 4.95293 7.02513
7 1 -0.0396129 -7.09008 7.7013 7.38192
321 2 0.025625 -9.16919 6.62868 8.66695
144 2 0.0250447 -7.95731 5.16334 11.2383
209 2 0.026348 -8.75031 8.161 11.6008
301 1 -0.0425137 -5.74173 5.12822 11.483
98 2 0.0198096 -5.15584 4.14542 9.6881
180 2 0.0223988 -11.613 8.29295 10.0974
230 2 0.0288012 -8.3867 6.42532 14.2349
279 2 0.0244093 -5.05353 4.58434 13.9561
349 1 -0.0414245 -7.78956 4.37142 13.868
28 1 -0.0384163 -6.67378 8.11299 13.3044
82 1 -0.0388211 -6.08019 6.21226 15.6763
271 1 -0.0424365 -9.19889 6.8147 16.1326
317 2 0.0240375 -9.40107 6.51957 18.7205
182 2 0.0279816 -7.94432 4.47535 16.592
319 1 -0.0414408 -7.32018 5.15469 18.4828
188 2 0.0221888 -8.64584 5.24287 21.7859
79 1 -0.0442989 -6.48048 4.02565 22.2284
329 2 0.0221403 -5.2136 3.86848 20.5011
354 2 0.0221268 -6.54261 4.31333 24.8423
225 2 0.0115552 -10.4191 6.30151 23.3868
276 2 0.0260475 -12.1864 12.7546 -0.830165
238 1 -0.0477448 -8.96115 9.91184 1.43173
391 1 -0.0415385 -10.1767 11.1769 -0.903095
80 2 0.0252497 -11.4297 10.9765 1.70886
205 1 -0.0414867 -12.8319 9.93145 -0.320619
193 1 -0.0417795 -11.8859 8.41235 1.96776
164 2 0.0210197 -10.5104 8.53557 -0.289665
62 2 0.0209533 -9.58271 8.84204 3.15231
380 2 0.0226727 -11.0619 10.7618 8.09168
165 2 0.024566 -9.31586 8.8214 6.26559
373 1 -0.0429355 -9.25497 9.1627 9.04618
59 2 0.0221263 -9.43001 11.2196 10.8701
19 1 -0.0453136 -11.5365 10.9712 10.6469
137 2 0.024221 -13.7256 12.1402 9.51906
419 2 0.0250725 -12.7242 12.5687 12.5132
171 2 0.0183323 -11.7056 9.59805 12.9294
241 1 -0.0463587 -9.6895 10.0082 13.3669
231 2 0.0223858 -9.65922 12.0642 13.9115
339 2 0.0244719 -8.02396 9.399 15.1961
219 2 0.0185307 -12.4499 12.3292 16.047
357 2 0.0162396 -10.9764 9.22325 15.962
277 1 -0.0502911 -10.5101 11.8309 16.746
374 2 0.0160343 -10.8886 12.2141 18.7823
311 2 0.024839 -12.8025 12.0876 22.3423
420 2 0.0243265 -11.765 10.2052 24.6906
246 2 0.0216713 -9.31169 12.3272 24.3602
399 2 0.0213023 -7.72753 10.0928 26.3305
93 2 0.0169512 -15.0403 14.9048 0.141928
10 1 -0.0467114 -13.7259 15.7083 1.56045
44 2 0.0200623 -12.9311 17.029 -0.506225
240 2 0.0227459 -11.2858 14.9216 1.40939
215 2 0.0247645 -12.6169 16.1833 4.08261
64 1 -0.0480216 -14.5966 14.6612 4.98157
58 1 -0.0470209 -12.1005 13.7757 3.51327
47 2 0.0186208 -14.1226 13.2985 2.65279
198 2 0.0187307 -12.5588 12.7626 5.45172
410 2 0.0197859 -12.1741 14.683 7.94272
117 2 0.0158595 -12.849 17.0386 8.22886
34 1 -0.0487596 -15.5861 17.1724 7.9307
112 1 -0.0487798 -10.3948 14.3215 6.09398
206 2 0.0224984 -15.0699 14.6548 7.48213
125 2 0.0194253 -15.0302 17.4465 5.88333
42 2 0.0262724 -14.2688 15.1827 10.8875
214 1 -0.0439576 -11.8233 14.9735 11.6611
161 2 0.0208352 -10.8254 13.8434 10.1283
40 1 -0.0467359 -13.7058 17.2184 10.7573
260 2 0.0282454 -12.6819 15.7013 14.223
244 1 -0.0430293 -11.1407 13.6014 14.2578
247 1 -0.0415241 -14.6342 15.917 13.3802
308 2 0.0198073 -16.0218 17.1629 15.2639
310 1 -0.0464708 -15.7686 16.3207 17.1938
258 2 0.0287432 -13.1411 15.5058 17.2771
256 1 -0.0405213 -11.9279 14.6477 19.4559
412 1 -0.040694 -12.7893 14.9044 22.263
236 2 0.0287499 -12.2917 17.1157 20.4689
26 2 0.0249709 -15.376 15.9412 22.0829
344 2 0.0228147 -10.3388 13.8445 21.4597
37 1 -0.0419644 -14.2904 16.5501 19.7796
405 2 0.0284237 -13.8359 13.9299 20.0008
104 2 0.0237099 -13.8938 14.3363 24.5254
294 2 0.0203335 -11.0331 15.6177 24.1094
418 1 -0.0440657 -11.2968 13.0599 24.2046
302 2 0.018041 0.553901 2.63213 0.389402
131 2 0.0235156 -0.780558 0.0853434 1.41277
48 2 0.0240999 -2.66909 3.77727 1.49471
226 1 -0.0473884 1.7786 0.730979 1.75977
78 2 0.0275004 0.679133 0.577106 4.13565
115 1 -0.0427213 -0.533188 2.42119 2.79415
221 2 0.0282013 -2.84045 1.43078 3.63727
38 2 0.0232468 -1.00626 2.97272 5.6594
326 2 0.0153582 1.03871 3.20282 11.5774
284 2 0.0168845 -1.45758 -0.512304 10.9962
293 2 0.0182929 -1.5348 2.76836 13.9693
278 2 0.017613 0.934389 1.11243 12.9279
295 1 -0.0458021 -1.47637 -0.0797215 13.5844
102 2 0.0258904 -0.261174 -0.514956 15.8422
337 1 -0.0463083 -0.768988 1.94362 15.8987
228 2 0.0220784 -1.65514 2.25044 18.3868
124 1 -0.0413172 -1.86075 -0.31771 17.8212
208 1 -0.0430577 0.962456 3.02087 18.285
384 2 0.0240761 0.227117 3.46554 20.7671
316 1 -0.0420761 -0.389231 0.818008 20.1072
250 1 -0.0459455 1.54558 1.66847 22.1765
116 2 0.0220122 -0.811271 0.958291 22.5933
425 2 0.0254269 2.06568 1.01209 19.6442
335 2 0.0159604 1.99179 0.656088 24.5585
14 2 0.0203612 -2.18308 2.05616 26.2023
53 2 0.0161972 -1.99967 7.42903 0.535209
45 2 0.0244311 -2.53254 6.76635 4.39092
135 2 0.0201193 -0.21245 4.99179 3.21179
8 2 0.0217607 -4.99106 5.4822 2.98178
118 1 -0.0432602 -2.71273 4.181 3.93529
49 1 -0.0414092 -4.82345 5.95612 5.63762
43 1 -0.0406031 -2.71311 7.81033 6.79488
71 2 0.0248873 -2.84021 5.10211 7.25857
68 2 0.0316162 -5.02594 7.47315 7.85842
76 1 -0.0450162 -0.458073 5.60432 5.73656
142 1 -0.0399302 -3.89123 6.2944 9.2479
242 2 0.0258541 -1.53819 7.56577 9.31082
84 2 0.0324284 -5.34348 7.76837 11.0727
213 2 0.0229518 -2.89042 5.60768 11.6082
229 1 -0.0399017 -3.93977 7.22843 13.2995
126 2 0.0247614 -2.80749 6.33669 15.42
283 1 -0.0420407 -3.87769 7.49509 17.4796
66 2 0.023198 -4.84913 4.91536 17.5185
210 2 0.0228537 -0.175569 4.44783 16.3833
54 2 0.0264895 -6.46537 7.71298 18.0826
334 1 -0.0430822 -3.12738 7.67594 22.1406
313 1 -0.0423538 -5.10198 6.4306 19.9968
341 2 0.0243104 -2.97761 6.28567 19.7625
248 2 0.0223682 -5.92621 6.65827 22.5261
4 1 -0.0482707 -1.40705 7.07536 25.2228
243 2 0.0221226 -3.74801 8.05789 24.2269
91 1 -0.0454702 -4.20167 5.39031 24.0327
300 2 0.0224902 -2.16401 5.42534 23.0823
111 2 0.0195503 -3.71819 5.39382 26.1806
97 1 -0.0461692 -6.07198 11.1977 0.627356
99 2 0.0206237 -4.04688 9.71619 -0.320058
50 2 0.0244465 -8.74399 12.538 0.884889
287 2 0.0148167 -6.41929 8.91261 1.86756
216 2 0.020703 -4.06817 11.6816 2.13829
179 2 0.01559 -7.05556 10.9318 3.10966
18 2 0.0227184 -4.27585 9.28931 5.29151
100 1 -0.0440688 -4.62315 9.98492 7.80645
41 2 0.022092 -7.16741 10.4314 8.06488
356 2 0.0175168 -4.57126 12.2021 6.47068
369 2 0.0222902 -4.30556 10.6688 9.793
46 1 -0.040487 -6.60666 9.40437 10.5149
146 2 0.0237501 -6.70166 10.5134 12.3942
307 1 -0.0416619 -2.61076 8.43448 10.9677
351 2 0.0240776 -3.46596 10.0088 12.8513
424 1 -0.0431674 -2.42106 8.95327 15.2827
291 2 0.0290629 -5.09115 8.52499 15.2781
350 2 0.0247498 -3.61335 10.2005 17.5004
414 2 0.0195192 -7.88688 11.6218 16.6639
289 1 -0.0431082 -2.42144 9.11634 19.6587
318 2 0.0218205 -4.74524 8.90835 20.5719
186 2 0.0234197 -5.29021 12.1403 25.3073
145 1 -0.0440594 -7.56368 12.8808 26.1923
312 2 0.0207074 -5.78062 13.886 0.655353
81 2 0.0203928 -8.19793 15.9499 2.03714
170 2 0.0188928 -7.11148 15.2076 4.88475
25 1 -0.0428354 -9.86976 16.017 3.33256
152 2 0.0200552 -9.6236 13.5648 3.82576
264 2 0.0217262 -9.73706 16.3759 6.41355
106 1 -0.0487793 -7.38381 15.1395 7.00184
305 2 0.0162402 -9.0547 13.1361 7.20263
56 2 0.0198216 -6.88941 17.1096 7.66736
39 2 0.0176 -6.43477 13.7628 9.05342
162 2 0.0200713 -6.16595 16.4631 11.1081
69 2 0.0200653 -7.12897 13.7314 12.3607
309 2 0.0237316 -9.72905 15.5121 13.136
340 1 -0.0463171 -5.86621 15.1672 13.2658
74 2 0.0213569 -5.52564 13.0812 15.1348
427 1 -0.0453094 -8.09223 13.4489 14.7786
416 2 0.0234702 -7.27049 15.9287 15.2765
397 1 -0.0469263 -6.58863 14.0384 17.2958
270 2 0.0278145 -9.68562 16.2657 19.0211
392 2 0.0249728 -9.81753 14.2702 16.4291
24 2 0.0165641 -7.05465 13.402 19.2388
332 2 0.021442 -8.12836 16.7832 21.9485
262 1 -0.0437637 -10.2154 16.367 21.844
234 2 0.0175383 -4.75008 13.3982 21.7219
51 2 0.0186545 -7.73875 14.9169 25.7482
127 1 -0.0490401 5.21687 3.15562 -0.217019
96 2 0.0169588 3.8187 0.751941 -0.194556
315 2 0.0156597 2.49895 3.79224 -0.615157
29 2 0.019589 6.38782 1.66887 1.65604
254 2 0.0220628 2.35646 2.95847 3.04571
404 2 0.0176295 3.9551 0.195807 3.23534
157 1 -0.0452119 1.47079 3.24214 5.07784
286 1 -0.0453823 2.61036 0.0695651 4.85391
263 2 0.0193607 2.9738 2.24391 6.20135
120 2 0.0236236 6.28309 -0.162685 9.07343
320 2 0.0238514 7.00212 1.19813 11.8224
345 2 0.021184 3.52799 3.6415 13.8109
168 2 0.0229113 4.78874 -0.160821 13.7791
253 1 -0.043204 7.32281 -0.244664 14.2924
343 1 -0.0467772 0.941542 3.55253 14.136
303 2 0.0237092 1.89728 1.92588 15.9193
401 2 0.02587 3.80332 3.07203 18.1469
429 2 0.0223623 5.80886 0.54734 16.6229
296 2 0.0238192 6.88657 1.24413 19.5026
411 2 0.0230135 4.15966 1.97911 21.9014
382 1 -0.0434764 2.83516 3.77291 20.519
328 1 -0.0448228 8.18784 -0.470326 21.1399
73 1 -0.0505257 3.26506 2.34715 24.7979
275 2 0.0193393 5.43024 2.10554 24.7492
176 2 0.0242407 6.9064 -0.237819 23.666
3 2 0.0190094 3.61073 6.96763 -0.830303
387 2 0.0143261 0.286328 6.7649 -0.043694
128 2 0.0205131 4.73155 4.53952 1.46576
123 2 0.0167229 4.04788 7.5202 2.29185
107 2 0.0191098 2.10725 5.65795 5.32405
159 2 0.0212556 3.85751 5.97795 7.97767
143 2 0.0218883 -0.0943857 7.76419 6.27019
367 1 -0.0466939 1.75027 6.42442 7.76794
21 2 0.0193203 0.619671 4.633 7.96616
72 2 0.022863 1.2358 6.62076 10.5692
189 2 0.0183386 4.50909 5.46096 11.348
175 1 -0.0432044 3.68082 7.64972 10.0071
22 1 -0.0468639 2.43001 5.4013 11.9666
101 2 0.0241764 1.43456 6.14203 14.1805
385 1 -0.0473396 4.24907 6.22721 14.2361
23 2 0.0247102 3.32319 8.15951 12.5583
393 2 0.0250674 -1.11419 7.81237 13.007
304 1 -0.0433509 4.32948 5.6537 18.5486
333 2 0.0250772 1.68121 5.50803 18.6882
281 2 0.0240667 -1.22786 7.98092 17.6664
375 2 0.0215315 3.43718 7.30183 16.5005
346 1 -0.0427914 2.6687 4.62591 16.2927
110 2 0.0237274 3.4907 6.21786 21.2362
360 2 0.0246266 -0.428415 7.73529 21.114
151 1 -0.0473787 4.81996 4.44792 22.695
15 2 0.0207916 0.467778 6.72759 24.0749
299 2 0.0182953 4.80826 5.25249 25.2556
372 2 0.0204685 2.14036 4.07569 23.3079
390 2 0.0223869 -0.937299 11.3612 0.341101
148 1 -0.0444571 -3.53628 12.4915 -0.194025
94 1 -0.0465841 -2.41166 9.99482 1.14459
121 1 -0.0462585 -0.524602 11.854 2.95496
381 2 0.0213565 0.190216 11.2369 5.3542
122 2 0.0211143 -1.8474 9.54329 3.23642
31 1 -0.0462554 -2.47837 11.0137 5.46183
60 2 0.0221424 -2.06252 10.2726 7.40112
77 2 0.0196899 2.62259 8.98913 7.0705
90 2 0.0198427 -1.14865 10.4823 10.5393
415 1 -0.0469201 1.36137 10.9911 10.8959
138 2 0.0221656 2.25269 9.71867 9.43341
218 2 0.0227625 -2.08996 11.7595 15.0224
358 1 -0.0458567 -0.928863 10.3832 13.0032
217 1 -0.0444857 0.504537 12.0554 14.8474
431 2 0.0246844 1.73877 10.2011 12.8295
297 2 0.0249819 0.290379 9.50109 15.3716
325 1 -0.0433765 -1.0364 10.7139 17.2523
408 2 0.0243189 1.43189 10.8501 18.1898
174 2 0.0245923 2.27017 9.57204 21.0242
394 1 -0.043295 -0.0749876 10.2517 20.4132
396 2 0.0248241 -1.66054 11.6858 19.5287
251 2 0.0238224 0.299416 12.0221 22.2063
359 2 0.0246875 -2.1818 10.0554 22.3
347 2 0.0230346 -1.07702 9.17689 25.2982
388 1 -0.0432775 0.40866 9.33032 23.0909
336 2 0.0230227 1.39113 11.0799 25.0246
376 1 -0.0472222 1.39636 8.51687 25.8503
323 2 0.0248092 3.01145 8.53729 23.8323
365 2 0.0202611 -2.64336 14.3553 0.347259
249 2 0.0195891 -4.21259 16.8751 -0.671159
95 2 0.0192993 0.0130761 13.8291 2.40922
269 2 0.0205744 -2.46144 13.1156 4.26449
61 1 -0.0434572 -2.11859 15.9025 7.98788
114 2 0.0195705 -4.46934 14.7241 6.71044
428 2 0.0205948 -1.67689 16.1374 5.84981
422 2 0.0221434 -1.39471 13.3415 7.59855
52 1 -0.0445165 -0.493357 13.7806 5.65777
355 1 -0.0463339 -4.99146 15.3027 9.19496
158 2 0.0214436 -3.16101 14.47 10.1512
130 1 -0.0430204 -3.66517 16.6409 11.6756
377 2 0.0198607 -0.0051174 12.8664 12.3786
371 2 0.0258849 -1.03644 16.4225 12.4084
207 2 0.023072 -3.41578 14.8 13.5212
361 1 -0.044615 -4.5956 15.8091 15.8738
400 1 -0.044934 -3.21067 16.6012 18.5273
314 2 0.02486 -2.05722 15.8402 16.2611
285 2 0.0227687 -4.03162 13.8118 17.7588
324 2 0.0244503 -0.384534 13.3298 17.1405
327 2 0.0225305 -5.96141 16.4009 18.1821
298 1 -0.0479716 -4.84395 14.5822 19.973
389 2 0.0235797 -2.19992 14.7433 20.1909
288 2 0.0224063 -4.57156 16.8952 20.9723
220 1 -0.0459838 -3.22346 15.277 22.614
378 2 0.0218486 -2.60796 13.8845 24.6491
133 1 -0.0464241 -1.87832 16.226 25.5698
366 2 0.0208099 -5.47137 15.7044 23.8758
103 1 -0.0462338 -4.9175 14.7198 25.6659
27 2 0.0263153 11.3135 2.23765 -0.17242
160 1 -0.0450848 9.02155 1.81683 1.04164
92 2 0.0199456 7.24319 3.80802 -0.589407
16 1 -0.0462229 10.5652 -0.195005 -0.205539
409 1 -0.0433258 7.15277 3.71634 2.12268
353 2 0.0222196 8.70809 2.31283 3.74134
181 1 -0.0425535 11.3197 3.02471 2.77424
203 2 0.0231748 10.9666 0.453177 2.52912
5 2 0.0229133 11.3137 3.40087 5.38766
36 2 0.0222713 9.31709 0.43606 7.71183
75 2 0.021543 12.48 0.125195 6.59874
196 1 -0.0450682 11.5041 0.39114 9.10608
342 2 0.0195563 9.65337 2.25946 10.2589
178 1 -0.041941 8.67127 -0.0866968 10.2581
108 2 0.0249277 11.4943 -0.0367761 11.6317
370 1 -0.0429185 10.2287 2.93071 15.4493
17 2 0.0237127 9.89175 -0.0414612 15.0278
255 2 0.0230764 7.81281 2.39766 14.6419
223 1 -0.0435498 9.52829 1.34706 12.8515
195 2 0.0232277 12.1896 1.81923 14.2485
222 2 0.0251135 8.28493 3.31926 17.5695
232 1 -0.0449985 8.36486 0.78883 16.9419
32 2 0.0233343 11.0444 1.56341 17.4697
239 2 0.0215455 10.9522 0.144919 21.2523
364 1 -0.0442189 9.42823 1.78056 19.6707
403 1 -0.045139 11.082 2.79291 21.8461
197 2 0.0238367 8.63271 1.93105 22.1852
423 2 0.0217683 11.2112 2.80606 24.0009
139 1 -0.0452035 9.90519 0.182651 23.7231
183 2 0.0237728 8.70394 1.13467 25.8099
395 2 0.0215242 11.8435 -0.205387 24.5664
173 2 0.0248281 7.26066 7.03993 0.344515
20 2 0.0260961 9.54809 4.50583 1.42225
187 1 -0.0400359 9.31047 4.78476 4.12478
386 2 0.0300391 8.48064 7.17938 3.64354
13 1 -0.0438075 6.01722 6.77371 2.58352
11 2 0.0244873 6.45752 4.60673 4.39338
155 2 0.0211857 4.84622 7.34639 5.30592
154 1 -0.0405088 7.38796 6.7675 5.46527
192 2 0.0243806 6.98498 6.90833 8.21413
132 2 0.0233395 9.22924 5.29074 6.7037
70 1 -0.044439 5.17839 8.44685 7.14096
6 2 0.0148994 6.08428 7.2633 14.1207
245 2 0.0231177 9.69551 5.61376 15.7766
368 2 0.0214253 10.2064 3.96154 12.9584
363 2 0.0228297 7.31565 6.25059 18.1596
292 1 -0.050355 6.08831 7.35184 16.7866
352 1 -0.0415086 10.6465 4.23304 18.0296
233 2 0.0233162 5.43402 4.78024 16.0802
156 2 0.0183808 5.08841 8.25153 19.2462
259 1 -0.0474521 6.04077 6.80042 20.6265
140 2 0.0148616 8.53174 7.59663 20.8343
280 1 -0.0520906 8.54298 6.02377 22.2223
402 2 0.024888 9.39539 4.3734 20.3648
407 2 0.0251105 5.87546 4.25357 20.2934
12 2 0.0187223 7.41208 3.90292 23.1449
113 2 0.0184262 6.16324 6.92673 22.8527
252 2 0.0224106 5.59999 11.3456 -0.0119082
55 1 -0.046114 5.09891 8.77156 0.365789
200 2 0.0188005 2.73764 9.80291 0.226132
2 2 0.0183833 4.42924 12.6003 5.2239
105 2 0.0232394 6.56222 9.47484 2.40303
266 2 0.0161773 2.11809 11.4529 2.89701
149 2 0.0211646 5.11359 11.0334 7.25325
65 2 0.0254105 7.56319 9.33263 6.02804
379 1 -0.043042 7.28779 9.71192 8.61722
163 1 -0.043999 4.63152 10.8341 9.81882
290 2 0.025256 5.39957 8.89208 10.1167
417 2 0.0242839 4.70774 11.142 12.3445
398 2 0.0235738 3.01222 11.9578 15.474
257 2 0.0114613 7.22599 9.13504 16.5003
1 1 -0.0438675 1.90252 12.4469 20.2093
413 2 0.0248622 4.36741 11.9808 20.2795
85 1 -0.0433078 2.89965 11.3431 22.8297
199 1 -0.0442598 3.9645 10.2913 25.519
330 2 0.02099 4.1264 12.7648 24.9274
306 2 0.0257872 5.31365 10.4259 22.9042
322 1 -0.0418894 6.66782 11.6463 24.8177
194 2 0.0248888 6.16258 8.79786 25.4653
212 2 0.0190918 3.00302 16.6221 0.516665
30 2 0.0187577 -1.06225 16.9988 0.846044
201 2 0.0157728 3.24232 14.3423 2.09069
362 2 0.0232779 1.3096 15.7105 4.59989
134 2 0.0209174 4.49107 15.4228 3.80514
166 1 -0.0483926 2.10691 13.1502 4.16453
67 1 -0.0428083 0.873138 16.1144 7.18529
202 1 -0.0447649 3.48239 15.3646 6.18622
177 2 0.0243449 1.83183 13.5396 7.00349
57 2 0.0259097 3.01131 15.9915 8.99542
150 2 0.025895 -0.0902018 15.5243 9.48613
172 1 -0.0418289 5.33897 13.4787 11.5925
338 2 0.0237359 2.96918 12.9685 10.2554
119 2 0.0256048 3.49327 15.2621 12.4938
35 2 0.0221994 1.1526 14.6379 14.6366
268 1 -0.0449041 3.60843 14.774 15.1308
237 2 0.0259712 5.57632 13.48 14.2619
136 1 -0.0443219 2.76098 12.7362 12.9793
235 1 -0.0446387 1.77167 13.6123 17.1373
267 2 0.0199701 2.37589 16.1622 17.0783
432 2 0.0248093 4.60332 13.8156 17.6143
129 2 0.0230058 -0.497624 16.9962 18.7491
272 2 0.0195203 3.7509 17.0031 19.3434
274 1 -0.043255 4.10583 14.5786 20.1239
227 2 0.022813 1.4504 14.4758 19.5321
273 2 0.0222602 2.83783 13.9688 22.3304
430 1 -0.0417455 5.38122 13.1672 22.5158
348 2 0.0214133 -0.571293 15.653 22.8075
185 2 0.0172223 0.135823 15.5062 25.8164
