# LAMMPS data file written by OVITO Basic 3.11.2

432 atoms
2 atom types

-6.64615496 13.1010840831 xlo xhi
-0.1287690525 16.8991668534 ylo yhi
-0.464598251 25.714491931 zlo zhi
-9.831083379 0.0 0.0 xy xz yz

Atoms  # atomic

300 2 -5.01321 2.95778 2.1848
406 1 -3.84772 1.35163 0.403755
388 1 -4.61186 4.14984 0.456567
147 2 -4.40367 -0.0555231 2.52734
36 2 -4.58541 1.86491 5.28838
190 1 -4.92876 0.251167 7.31522
402 2 -7.44544 1.16491 6.33269
196 1 -5.4416 3.24217 6.81428
134 2 -6.00218 1.88867 9.05353
230 2 -6.18031 3.70947 12.0436
290 2 -5.50354 1.3013 12.1257
126 2 -7.60384 3.7833 14.4855
167 2 -4.47636 1.39715 15.1627
415 1 -3.68027 3.05885 13.1186
260 2 -3.91954 2.49088 18.4693
261 2 -7.62017 1.90738 17.1047
346 1 -5.38515 3.20057 20.6219
308 2 -7.70132 3.58835 19.5975
250 1 -3.00743 0.963939 20.2303
417 2 -4.96132 1.03248 22.0368
227 2 -7.24819 3.34046 22.7179
282 2 -6.19298 2.28414 25.6369
239 2 -2.39893 0.0718471 24.7281
407 2 -9.43589 8.09363 2.59317
63 2 -5.96077 5.82007 2.08156
370 1 -8.14689 6.76812 0.60211
99 2 -8.30899 5.08236 2.75106
53 2 -8.57232 7.27505 5.70904
14 2 -7.65695 4.31245 5.86326
87 2 -7.20813 7.99687 8.54243
309 2 -6.93772 4.88462 8.88714
421 1 -9.05005 5.84552 7.76798
4 1 -6.13842 6.35277 6.7441
41 2 -6.69626 6.87394 11.6637
170 2 -10.1569 7.41437 9.60788
331 1 -10.6435 8.12203 14.5084
108 2 -9.69536 6.57062 12.8762
301 1 -7.85645 8.22258 13.4907
321 2 -8.14027 6.72251 15.7463
144 2 -5.21129 4.37879 14.8747
66 2 -8.32892 6.66508 18.8618
219 2 -5.99629 4.77182 18.1621
273 2 -7.49203 7.53279 21.7118
223 1 -8.47051 4.98724 20.9506
248 2 -5.2944 5.24321 21.292
413 2 -11.2414 7.92942 22.6343
93 2 -6.3769 5.57279 25.0888
179 2 -10.3348 7.93938 25.6839
238 1 -12.2644 12.296 1.30135
105 2 -9.93595 11.2356 2.47242
145 1 -8.7457 9.7702 0.575276
391 1 -11.7014 9.33012 1.52252
316 1 -9.35245 12.747 0.353883
39 2 -8.83692 10.386 5.2428
373 1 -9.67968 8.91104 7.5072
164 2 -11.7751 9.92795 6.27115
58 1 -10.356 11.9512 7.13678
193 1 -13.2633 11.3488 8.17961
357 2 -8.24506 10.9862 8.32434
54 2 -11.169 10.3914 9.39093
47 2 -10.8226 12.14 12.1553
209 2 -7.74186 9.92686 11.4572
398 2 -9.396 9.90068 14.7875
277 1 -11.8626 11.1129 14.3933
229 1 -8.709 11.4093 13.3648
380 2 -13.7394 12.1666 15.8992
246 2 -11.8822 9.78962 16.6805
420 2 -8.78053 11.4848 17.8564
412 1 -9.38705 8.7583 17.3521
245 2 -10.2699 9.06142 19.2416
418 1 -7.92898 9.07844 20.1796
322 1 -10.3174 11.5244 20.1287
294 2 -12.8201 11.0841 19.456
359 2 -12.0769 11.9035 22.3499
387 2 -9.69097 9.76863 22.2744
275 2 -10.9728 10.9886 25.5579
408 2 -7.47609 8.62852 24.7082
73 1 -12.8267 15.4678 0.747971
2 2 -13.9534 13.4076 -0.240303
44 2 -10.6966 14.3313 1.96613
5 2 -13.7054 13.8968 2.89867
27 2 -13.2353 15.9392 5.47477
263 2 -9.91823 13.3394 4.98566
138 2 -12.8218 12.8685 6.02108
172 1 -14.0 14.3861 7.72709
215 2 -12.6316 16.5111 8.55636
8 2 -11.5783 13.4885 8.93007
109 1 -11.0615 14.9488 6.77944
180 2 -11.7697 15.1972 11.7339
6 2 -15.5144 15.8375 9.63338
369 2 -14.7981 15.1893 12.6879
332 2 -10.2996 12.9974 15.169
379 1 -12.3597 13.9563 13.8765
76 1 -12.8539 16.9619 13.4498
274 1 -15.6 16.9037 14.438
368 2 -13.6686 15.3102 15.6827
432 2 -11.0843 13.54 18.2675
423 2 -16.031 16.8676 17.0782
116 2 -13.3498 16.0071 18.69
228 2 -12.446 15.881 21.7271
403 1 -15.0157 15.6932 20.6739
430 1 -12.4535 13.7493 20.3062
258 2 -9.90391 13.9457 21.2353
26 2 -11.0037 14.064 24.8231
212 2 -15.2358 16.2882 25.7643
302 2 -2.07954 3.37843 1.40601
299 2 1.57074 0.991013 0.511062
191 2 -1.4252 0.431274 1.67306
95 2 -1.58648 2.3425 4.54199
286 1 1.03089 1.52906 5.46844
305 2 2.3721 0.106438 3.41669
107 2 -0.207061 3.22033 7.19303
88 1 -1.95618 1.06146 6.24722
183 2 -3.13097 2.60388 8.0917
78 2 0.0859158 0.0593848 7.57825
118 1 -0.874424 3.52368 12.0637
33 2 0.505546 2.05486 10.2294
119 2 -2.40551 1.32166 11.2786
124 1 -0.149486 0.508518 12.4804
42 2 -1.55862 2.10292 14.3506
21 2 1.30483 2.52605 13.3064
40 1 1.17423 1.0015 18.4358
339 2 -1.26369 0.791527 17.7311
345 2 0.578209 3.02557 16.6879
208 1 -1.12512 3.07283 19.0737
327 2 -0.569674 1.18335 20.8989
341 2 -2.74376 3.39297 21.3468
384 2 -0.154233 3.3318 23.4626
81 2 -3.24471 3.16715 24.6083
91 1 -0.913338 1.99764 25.6938
411 2 0.714787 0.128638 23.6871
269 2 -3.03484 6.34122 0.816201
382 1 -5.31978 7.32648 -0.21355
20 2 -5.71747 7.9702 4.58713
211 1 -3.31841 6.6881 5.56243
125 2 -1.73035 5.4208 3.92067
181 1 0.190957 4.4846 5.42992
111 2 -2.85783 8.34199 3.61179
177 2 -4.63985 5.0386 4.88786
18 2 -3.89513 5.07706 7.93575
128 2 -1.21287 6.19225 6.84902
353 2 -4.27718 8.29783 7.40569
343 1 -1.62332 6.50895 11.6337
65 2 -3.77745 7.41955 10.4244
77 2 -0.434038 5.04893 9.84682
264 2 -3.29094 4.35129 10.9384
284 2 -2.21788 5.13842 13.8621
84 2 -3.09194 8.08859 13.507
83 2 -5.80739 7.36955 14.7065
313 1 -4.57373 5.90668 12.7148
218 2 -1.97077 4.74487 17.2521
267 2 -4.103 7.13987 17.4475
304 1 -1.43778 7.33817 18.2216
281 2 -3.14057 7.45549 20.4818
333 2 -0.670991 5.56959 20.0847
283 1 -3.39054 5.10915 19.3467
397 1 -5.71482 7.1774 19.6364
378 2 -1.32837 6.39813 23.2528
289 1 -2.31161 7.94687 25.0742
319 1 -1.46211 4.87884 25.4662
234 2 -4.48194 8.50442 23.8807
15 2 -7.10265 11.8723 1.27513
3 2 -3.66058 9.44682 0.71239
50 2 -6.58008 8.84528 1.67368
203 2 -4.19366 12.569 0.280682
142 1 -3.86236 9.99565 5.35636
68 2 -6.03372 11.0853 4.16338
52 1 -7.46657 12.4713 6.07678
62 2 -5.30033 11.3509 7.25917
7 1 -6.71611 9.38882 6.45485
422 2 -4.8003 10.4627 10.2524
349 1 -5.81897 11.9722 12.0887
46 1 -5.23284 8.94326 12.2825
236 2 -6.33582 10.4642 14.2582
291 2 -3.43804 11.1396 13.1292
334 1 -3.65943 9.41258 18.6807
249 2 -4.43955 11.1754 16.788
329 2 -6.61734 9.11474 17.7414
268 1 -6.03879 11.5472 18.8646
110 2 -5.32535 9.67599 20.669
287 2 -7.70813 11.6797 20.9442
279 2 -8.13451 11.8824 24.3536
176 2 -5.11642 11.5896 23.5452
115 1 -5.77883 10.3844 25.6908
288 2 -7.74444 14.8288 0.210261
79 1 -10.0502 16.1507 -0.140791
38 2 -10.3099 16.4302 4.53445
365 2 -7.07494 14.025 3.86532
178 1 -4.5446 13.0022 5.01643
25 1 -8.17765 15.4978 5.69339
240 2 -8.67751 14.1045 7.83101
152 2 -5.68974 14.4785 6.79995
241 1 -6.51937 15.0184 11.7954
278 2 -8.92986 15.9861 10.7072
410 2 -5.08427 13.5602 9.86016
198 2 -8.00699 13.0568 10.9548
35 2 -7.7007 16.5216 13.6392
161 2 -7.32236 13.4547 14.0441
244 1 -9.44408 14.439 12.8497
374 2 -10.7138 16.0763 14.623
344 2 -8.819 15.6227 17.2814
285 2 -6.53773 13.4867 17.003
325 1 -6.34435 15.9462 18.2321
262 1 -8.35449 13.7327 19.1447
270 2 -7.98456 16.2894 20.319
257 2 -5.80671 14.0563 20.0334
427 1 -10.5577 15.8969 19.5368
139 1 -5.90186 13.3644 25.2453
103 1 -8.38246 14.5091 24.3513
401 2 -6.02513 14.8936 23.2587
280 1 -6.65646 16.6981 24.9285
122 2 4.25878 3.45933 2.27354
335 2 4.61042 1.64494 -0.36056
155 2 5.33296 0.532604 2.46252
354 2 0.801842 3.9638 0.27053
367 1 3.91032 2.11878 4.39632
89 2 6.24055 1.32518 5.4666
315 2 1.31867 3.11158 3.45603
146 2 3.09582 0.528173 6.61545
404 2 2.78038 3.62555 6.24606
114 2 3.46068 2.533 9.19809
386 2 6.63604 0.142607 8.588
19 1 5.60402 1.6993 10.4545
34 1 1.99712 4.10998 11.0016
168 2 4.16294 3.2241 12.2374
340 1 2.70329 1.04526 11.5014
326 2 5.03898 0.166975 12.5609
237 2 6.93378 1.18408 15.0767
361 1 5.51947 1.07038 17.3556
431 2 2.9917 1.02265 16.3308
385 1 3.08915 3.20275 17.6387
120 2 5.76464 3.66449 17.6869
372 2 6.87137 0.953656 21.5474
429 2 1.49901 3.32175 19.7718
113 2 3.95794 1.41742 19.3639
347 2 2.86417 4.01341 22.3554
425 2 3.86897 1.03604 22.7126
16 1 6.17447 0.403376 24.042
121 1 5.09642 3.1187 23.5946
151 1 2.15168 2.52519 24.5322
252 2 3.80795 6.51295 1.69459
86 2 0.032225 6.89274 -0.0290819
173 2 0.951715 6.09171 2.77151
159 2 1.66477 6.56854 5.84223
157 1 3.0932 5.12984 4.04117
94 1 -0.478429 7.50515 4.59816
202 1 2.29799 8.27018 3.23067
201 2 2.47698 5.4676 8.86547
71 2 -0.877006 8.10538 9.34527
185 2 3.72333 6.27288 11.671
307 1 1.2894 7.09157 10.5696
355 1 4.91129 4.69739 9.96554
242 2 0.815501 5.63542 12.7817
350 2 2.70199 4.9746 15.6221
337 1 2.69626 7.49279 16.6979
303 2 3.38426 5.58666 18.7269
296 2 0.123931 6.80528 16.0438
295 1 0.838249 5.28085 17.9726
90 2 1.23884 7.88915 18.8872
210 2 1.6484 6.95329 22.0861
153 2 2.89131 7.53098 25.0233
292 1 1.24128 5.45703 24.179
135 2 3.68867 4.53338 25.3442
394 1 4.15155 6.13579 23.3089
85 1 0.442898 8.46419 23.8302
225 2 -0.18947 12.2273 1.84241
251 2 -0.768617 9.79246 -0.351689
197 2 -0.023941 9.12347 2.67206
74 2 -3.04091 11.5303 3.16928
336 2 1.6495 9.67931 5.36495
49 1 -0.892553 10.7576 4.38703
362 2 0.360446 12.4471 5.00274
216 2 -2.49846 12.162 6.22593
45 2 -1.43012 9.25262 6.28663
428 2 1.04167 11.5934 8.05985
266 2 -1.85962 11.0956 9.11933
143 2 2.08763 8.59433 8.28268
82 1 -2.96627 12.5597 11.0268
224 2 -0.50659 11.6055 11.9719
163 1 0.52926 10.1544 10.1413
28 1 -2.3627 9.5117 11.2386
171 2 2.68542 9.18152 11.3888
137 2 -0.199032 8.53598 12.4421
393 2 -0.366638 11.4511 15.094
381 2 1.79031 9.1364 14.7605
306 2 0.720356 11.8613 18.0759
358 1 -1.90586 11.6191 17.508
130 1 0.383282 9.5067 16.9994
320 2 -2.04813 9.13716 16.3039
399 2 1.12179 10.0875 21.6542
243 2 -3.49046 11.9906 19.7266
231 2 -1.25063 9.7628 19.4054
131 2 -1.76232 9.62231 22.7594
1 1 -0.170623 11.4958 23.6949
220 1 -2.95171 10.9208 24.74
389 2 2.04051 10.5251 24.738
127 1 -5.48365 15.7534 2.00625
48 2 -1.38362 15.1384 1.73085
56 2 -2.72279 15.2487 5.79389
31 1 -5.05848 16.1863 4.88482
133 1 -1.73365 13.699 3.92764
100 1 -2.2592 16.7322 3.58533
12 2 -4.09743 14.5348 3.01251
24 2 -2.24393 14.2431 8.7557
69 2 -1.51165 14.596 11.825
106 1 -3.64211 15.6464 10.7455
67 1 -0.0878898 13.1674 9.8584
204 2 -6.02544 16.5116 9.6648
102 2 -4.40772 14.0709 12.9531
297 2 -2.54898 13.5569 15.6683
351 2 -4.69355 15.8112 16.0322
396 2 -1.39898 14.0727 18.5952
424 1 -4.10571 13.8055 17.8582
175 1 -0.0506825 13.8089 16.2502
400 1 -2.0731 16.0446 16.8738
377 2 -3.65969 16.1922 19.037
366 2 -0.515298 12.9547 21.4413
30 2 -1.55918 16.0373 24.4257
222 2 -2.44907 12.9332 22.9682
92 2 -4.3316 15.5599 25.9158
395 2 -1.1719 12.7866 25.7904
226 1 9.45888 3.2669 1.93106
310 1 10.308 0.114262 2.31583
96 2 8.23392 1.17676 1.12375
323 2 7.08425 4.13416 0.989077
348 2 11.5782 1.98064 0.987948
17 2 9.23278 1.73053 4.18248
187 1 6.79761 2.71563 3.27969
11 2 9.466 0.749126 7.49835
98 2 9.22118 3.85027 6.98739
189 2 6.36781 3.25383 8.12661
160 1 11.3438 2.81976 8.15765
112 1 8.44607 2.22548 9.36539
150 2 10.8842 1.29063 10.3086
162 2 7.05318 3.75019 11.2155
207 2 7.98704 0.706818 11.488
132 2 9.11799 3.17471 13.8123
57 2 11.6876 1.14911 14.0885
184 1 9.68238 1.21149 15.9084
253 1 7.32712 3.26752 16.277
371 2 8.1347 1.46453 18.0783
363 2 9.87704 3.91281 16.8571
328 1 10.5402 0.778271 18.8252
342 2 9.76976 2.39615 20.878
232 1 7.93407 2.7028 19.844
9 2 5.84472 3.9513 21.193
265 1 12.0697 1.06166 21.4122
414 2 10.3699 2.67695 24.1205
364 1 8.15589 3.60285 22.5703
158 2 7.37859 2.05314 24.4944
352 1 9.14236 0.717846 22.858
259 1 9.64764 0.767915 25.7878
97 1 8.74135 6.24379 1.60464
276 2 6.60245 7.24244 0.619557
383 2 10.0357 4.84231 -0.0247811
186 2 8.48673 4.79739 3.86952
356 2 7.37704 7.76745 3.69172
206 2 4.42694 7.37058 4.66293
13 1 5.98583 5.69551 2.87923
165 2 5.57774 4.3527 5.05082
213 2 5.3439 6.19916 7.8167
60 2 8.21855 6.8403 6.73761
22 1 7.15465 8.3632 8.53818
409 1 7.78473 5.30976 8.90629
254 2 6.62266 6.90163 10.6411
43 1 4.20122 7.7731 9.5456
75 2 9.97301 4.2681 10.077
392 2 4.32056 7.37127 14.4816
214 1 6.54716 7.72508 15.6331
255 2 6.84845 5.32348 14.5137
154 1 9.66905 4.93224 14.8978
233 2 5.29306 7.74902 17.4577
416 2 8.65618 6.75621 16.8909
271 1 4.95799 5.29922 16.5611
188 2 8.6363 5.20534 20.1262
376 1 7.07315 6.54341 21.8676
311 2 4.56935 7.33707 21.0549
200 2 7.26727 8.01958 19.7086
174 2 6.65411 5.16394 24.1311
194 2 5.76558 8.24252 23.8716
317 2 9.7218 5.68933 23.1506
80 2 5.74449 10.344 0.383585
318 2 2.85005 9.55158 1.51652
205 1 4.47911 11.931 2.05746
32 2 2.87876 12.6608 0.791256
55 1 5.20854 8.78915 2.50707
390 2 3.85012 10.473 4.32783
149 2 6.80556 10.8448 3.35451
426 2 4.00494 12.217 7.02269
195 2 5.04974 9.29937 7.2911
136 1 3.46547 10.6806 9.12284
117 2 5.60686 9.84989 10.3878
72 2 2.34216 12.2293 10.9132
59 2 5.93894 12.1622 12.7524
375 2 3.78055 11.1968 13.7498
192 2 6.78912 9.05043 13.4275
64 1 4.50232 9.88822 15.2224
247 1 2.11584 11.7029 15.6677
293 2 3.23903 10.1228 17.422
182 2 4.01365 10.3882 20.5329
199 1 6.3158 9.58461 21.6725
256 1 5.32365 12.3214 21.3753
37 1 2.59038 12.0233 22.5254
156 2 4.81623 11.2157 23.5722
166 1 3.35647 8.96897 22.8131
10 1 4.03333 15.0451 1.37108
140 2 1.45296 15.5743 0.407272
169 1 1.27219 14.2261 2.69625
51 2 0.158991 15.6479 4.56207
104 2 2.98478 13.5494 3.81129
123 2 2.90535 16.6461 3.10798
141 2 0.640642 14.6881 7.62675
70 1 2.8014 13.7848 8.76442
148 1 2.08922 16.775 8.44946
101 2 3.57331 15.2385 6.51193
23 2 1.3759 15.2193 10.739
61 1 -0.74916 16.2206 9.58586
338 2 5.20873 12.9276 9.85574
314 2 -0.643883 16.0093 14.5433
419 2 1.70642 13.8017 13.9445
217 1 4.31745 13.6205 14.665
235 1 1.81211 15.8912 15.5484
29 2 0.596225 16.1954 17.4405
360 2 2.93888 13.8328 16.8736
405 2 2.28712 13.4166 20.3094
272 2 2.89575 16.5398 20.0839
129 2 -0.228695 16.1942 20.7704
298 1 1.60824 14.7908 21.7974
221 2 4.83007 13.4427 19.2568
312 2 1.2962 13.5552 24.0015
330 2 4.23264 14.3428 22.7618
324 2 1.75772 16.78 23.5251
