# LAMMPS data file written by OVITO Basic 3.9.4

216 atoms
2 atom types

-0.0297725941 19.2243125941 xlo xhi
-0.0258039179 16.6487679179 ylo yhi
0.2607412401 12.1612487599 zlo zhi
-9.627294236 1.9235080577e-05 -4.078614728e-08 xy xz yz

Masses

1 183.84   # W
2 78.96  # Se

Atoms  # charge

5 2 -0.248374 1.57472 0.900561 1.61462
41 2 -0.248374 -0.0298261 3.67966 1.61462
77 2 -0.248374 -1.63438 6.45875 1.61462
83 2 -0.248374 1.57464 6.45875 1.61462
1 1 0.479501 -0.0297956 1.82693 3.23587
4 2 -0.231127 1.57473 0.900561 4.85712
37 1 0.479501 -1.63434 4.60602 3.23587
40 2 -0.231127 -0.0298213 3.67966 4.85712
73 1 0.479501 -3.23889 7.38512 3.23587
76 2 -0.231127 -1.63437 6.45875 4.85712
43 1 0.479501 1.57467 4.60602 3.23587
79 1 0.479501 -0.0298795 7.38512 3.23587
82 2 -0.231127 1.57464 6.45875 4.85712
2 1 0.479501 1.57473 0.900561 9.18612
3 2 -0.231127 -0.0297885 1.82693 7.56487
38 1 0.479501 -0.0298142 3.67966 9.18612
39 2 -0.231127 -1.63434 4.60602 7.56487
74 1 0.479501 -1.63436 6.45875 9.18612
75 2 -0.231127 -3.23889 7.38512 7.56487
45 2 -0.231127 1.57468 4.60602 7.56487
80 1 0.479501 1.57465 6.45875 9.18612
81 2 -0.231127 -0.0298724 7.38512 7.56487
6 2 -0.248374 -0.0297837 1.82693 10.8074
42 2 -0.248374 -1.63433 4.60602 10.8074
78 2 -0.248374 -3.23888 7.38512 10.8074
48 2 -0.248374 1.57468 4.60602 10.8074
84 2 -0.248374 -0.0298676 7.38512 10.8074
11 2 -0.248374 4.78374 0.900561 1.61462
47 2 -0.248374 3.17919 3.67966 1.61462
17 2 -0.248374 7.99275 0.900561 1.61462
53 2 -0.248374 6.3882 3.67966 1.61462
89 2 -0.248374 4.78365 6.45875 1.61462
7 1 0.479501 3.17922 1.82693 3.23587
10 2 -0.231127 4.78374 0.900561 4.85712
46 2 -0.231127 3.17919 3.67966 4.85712
13 1 0.479501 6.38823 1.82693 3.23587
16 2 -0.231127 7.99276 0.900561 4.85712
49 1 0.479501 4.78368 4.60602 3.23587
52 2 -0.231127 6.38821 3.67966 4.85712
85 1 0.479501 3.17913 7.38512 3.23587
88 2 -0.231127 4.78366 6.45875 4.85712
8 1 0.479501 4.78375 0.900561 9.18612
9 2 -0.231127 3.17923 1.82693 7.56487
44 1 0.479501 3.1792 3.67966 9.18612
14 1 0.479501 7.99276 0.900561 9.18612
15 2 -0.231127 6.38824 1.82693 7.56487
50 1 0.479501 6.38821 3.67966 9.18612
51 2 -0.231127 4.78369 4.60602 7.56487
86 1 0.479501 4.78367 6.45875 9.18612
87 2 -0.231127 3.17914 7.38512 7.56487
12 2 -0.248374 3.17923 1.82693 10.8074
18 2 -0.248374 6.38824 1.82693 10.8074
54 2 -0.248374 4.7837 4.60602 10.8074
90 2 -0.248374 3.17915 7.38512 10.8074
113 2 -0.248374 -3.23892 9.23785 1.61462
149 2 -0.248374 -4.84347 12.0169 1.61462
185 2 -0.248374 -6.44802 14.796 1.61462
191 2 -0.248374 -3.23901 14.796 1.61462
109 1 0.479501 -4.84344 10.1642 3.23587
112 2 -0.231127 -3.23892 9.23785 4.85712
145 1 0.479501 -6.44799 12.9433 3.23587
148 2 -0.231127 -4.84347 12.0169 4.85712
181 1 0.479501 -8.05254 15.7224 3.23587
184 2 -0.231127 -6.44802 14.796 4.85712
151 1 0.479501 -3.23898 12.9433 3.23587
187 1 0.479501 -4.84353 15.7224 3.23587
190 2 -0.231127 -3.239 14.796 4.85712
110 1 0.479501 -3.23891 9.23785 9.18612
111 2 -0.231127 -4.84344 10.1642 7.56487
146 1 0.479501 -4.84346 12.0169 9.18612
147 2 -0.231127 -6.44798 12.9433 7.56487
182 1 0.479501 -6.44801 14.796 9.18612
183 2 -0.231127 -8.05253 15.7224 7.56487
153 2 -0.231127 -3.23897 12.9433 7.56487
188 1 0.479501 -3.239 14.796 9.18612
189 2 -0.231127 -4.84352 15.7224 7.56487
114 2 -0.248374 -4.84343 10.1642 10.8074
150 2 -0.248374 -6.44798 12.9433 10.8074
186 2 -0.248374 -8.05253 15.7224 10.8074
156 2 -0.248374 -3.23897 12.9433 10.8074
192 2 -0.248374 -4.84351 15.7224 10.8074
119 2 -0.248374 -0.02991 9.23785 1.61462
155 2 -0.248374 -1.63446 12.0169 1.61462
125 2 -0.248374 3.1791 9.23785 1.61462
161 2 -0.248374 1.57456 12.0169 1.61462
197 2 -0.248374 -0.0299939 14.796 1.61462
115 1 0.479501 -1.63443 10.1642 3.23587
118 2 -0.231127 -0.0299052 9.23785 4.85712
154 2 -0.231127 -1.63445 12.0169 4.85712
121 1 0.479501 1.57459 10.1642 3.23587
124 2 -0.231127 3.17911 9.23785 4.85712
157 1 0.479501 -0.0299634 12.9433 3.23587
160 2 -0.231127 1.57456 12.0169 4.85712
193 1 0.479501 -1.63451 15.7224 3.23587
196 2 -0.231127 -0.0299891 14.796 4.85712
116 1 0.479501 -0.0298981 9.23785 9.18612
117 2 -0.231127 -1.63442 10.1642 7.56487
152 1 0.479501 -1.63445 12.0169 9.18612
122 1 0.479501 3.17912 9.23785 9.18612
123 2 -0.231127 1.57459 10.1642 7.56487
158 1 0.479501 1.57457 12.0169 9.18612
159 2 -0.231127 -0.0299563 12.9433 7.56487
194 1 0.479501 -0.029982 14.796 9.18612
195 2 -0.231127 -1.63451 15.7224 7.56487
120 2 -0.248374 -1.63442 10.1642 10.8074
126 2 -0.248374 1.5746 10.1642 10.8074
162 2 -0.248374 -0.0299515 12.9433 10.8074
198 2 -0.248374 -1.6345 15.7224 10.8074
23 2 -0.248374 11.2018 0.900561 1.61462
59 2 -0.248374 9.59722 3.67966 1.61462
95 2 -0.248374 7.99267 6.45875 1.61462
101 2 -0.248374 11.2017 6.45875 1.61462
19 1 0.479501 9.59725 1.82693 3.23587
22 2 -0.231127 11.2018 0.900561 4.85712
55 1 0.479501 7.9927 4.60602 3.23587
58 2 -0.231127 9.59722 3.67966 4.85712
91 1 0.479501 6.38815 7.38512 3.23587
94 2 -0.231127 7.99267 6.45875 4.85712
61 1 0.479501 11.2017 4.60602 3.23587
97 1 0.479501 9.59716 7.38512 3.23587
100 2 -0.231127 11.2017 6.45875 4.85712
20 1 0.479501 11.2018 0.900561 9.18612
21 2 -0.231127 9.59725 1.82693 7.56487
56 1 0.479501 9.59723 3.67966 9.18612
57 2 -0.231127 7.99271 4.60602 7.56487
92 1 0.479501 7.99268 6.45875 9.18612
93 2 -0.231127 6.38816 7.38512 7.56487
63 2 -0.231127 11.2017 4.60602 7.56487
98 1 0.479501 11.2017 6.45875 9.18612
99 2 -0.231127 9.59717 7.38512 7.56487
24 2 -0.248374 9.59726 1.82693 10.8074
60 2 -0.248374 7.99271 4.60602 10.8074
96 2 -0.248374 6.38816 7.38512 10.8074
66 2 -0.248374 11.2017 4.60602 10.8074
102 2 -0.248374 9.59717 7.38512 10.8074
29 2 -0.248374 14.4108 0.900561 1.61462
65 2 -0.248374 12.8062 3.67966 1.61462
35 2 -0.248374 17.6198 0.900561 1.61462
71 2 -0.248374 16.0152 3.67966 1.61462
107 2 -0.248374 14.4107 6.45875 1.61462
25 1 0.479501 12.8063 1.82693 3.23587
28 2 -0.231127 14.4108 0.900561 4.85712
64 2 -0.231127 12.8062 3.67966 4.85712
31 1 0.479501 16.0153 1.82693 3.23587
34 2 -0.231127 17.6198 0.900561 4.85712
67 1 0.479501 14.4107 4.60602 3.23587
70 2 -0.231127 16.0152 3.67966 4.85712
103 1 0.479501 12.8062 7.38512 3.23587
106 2 -0.231127 14.4107 6.45875 4.85712
26 1 0.479501 14.4108 0.900561 9.18612
27 2 -0.231127 12.8063 1.82693 7.56487
62 1 0.479501 12.8062 3.67966 9.18612
32 1 0.479501 17.6198 0.900561 9.18612
33 2 -0.231127 16.0153 1.82693 7.56487
68 1 0.479501 16.0153 3.67966 9.18612
69 2 -0.231127 14.4107 4.60602 7.56487
104 1 0.479501 14.4107 6.45875 9.18612
105 2 -0.231127 12.8062 7.38512 7.56487
30 2 -0.248374 12.8063 1.82693 10.8074
36 2 -0.248374 16.0153 1.82693 10.8074
72 2 -0.248374 14.4107 4.60602 10.8074
108 2 -0.248374 12.8062 7.38512 10.8074
131 2 -0.248374 6.38812 9.23785 1.61462
167 2 -0.248374 4.78357 12.0169 1.61462
203 2 -0.248374 3.17902 14.796 1.61462
209 2 -0.248374 6.38803 14.796 1.61462
127 1 0.479501 4.7836 10.1642 3.23587
130 2 -0.231127 6.38812 9.23785 4.85712
163 1 0.479501 3.17905 12.9433 3.23587
166 2 -0.231127 4.78357 12.0169 4.85712
199 1 0.479501 1.5745 15.7224 3.23587
202 2 -0.231127 3.17903 14.796 4.85712
169 1 0.479501 6.38807 12.9433 3.23587
205 1 0.479501 4.78352 15.7224 3.23587
208 2 -0.231127 6.38804 14.796 4.85712
128 1 0.479501 6.38813 9.23785 9.18612
129 2 -0.231127 4.78361 10.1642 7.56487
164 1 0.479501 4.78358 12.0169 9.18612
165 2 -0.231127 3.17906 12.9433 7.56487
200 1 0.479501 3.17903 14.796 9.18612
201 2 -0.231127 1.57451 15.7224 7.56487
171 2 -0.231127 6.38807 12.9433 7.56487
206 1 0.479501 6.38805 14.796 9.18612
207 2 -0.231127 4.78352 15.7224 7.56487
132 2 -0.248374 4.78361 10.1642 10.8074
168 2 -0.248374 3.17906 12.9433 10.8074
204 2 -0.248374 1.57451 15.7224 10.8074
174 2 -0.248374 6.38808 12.9433 10.8074
210 2 -0.248374 4.78353 15.7224 10.8074
137 2 -0.248374 9.59713 9.23785 1.61462
173 2 -0.248374 7.99258 12.0169 1.61462
143 2 -0.248374 12.8061 9.23785 1.61462
179 2 -0.248374 11.2016 12.0169 1.61462
215 2 -0.248374 9.59705 14.796 1.61462
133 1 0.479501 7.99261 10.1642 3.23587
136 2 -0.231127 9.59714 9.23785 4.85712
172 2 -0.231127 7.99259 12.0169 4.85712
139 1 0.479501 11.2016 10.1642 3.23587
142 2 -0.231127 12.8062 9.23785 4.85712
175 1 0.479501 9.59708 12.9433 3.23587
178 2 -0.231127 11.2016 12.0169 4.85712
211 1 0.479501 7.99253 15.7224 3.23587
214 2 -0.231127 9.59705 14.796 4.85712
134 1 0.479501 9.59714 9.23785 9.18612
135 2 -0.231127 7.99262 10.1642 7.56487
170 1 0.479501 7.9926 12.0169 9.18612
140 1 0.479501 12.8062 9.23785 9.18612
141 2 -0.231127 11.2016 10.1642 7.56487
176 1 0.479501 11.2016 12.0169 9.18612
177 2 -0.231127 9.59709 12.9433 7.56487
212 1 0.479501 9.59706 14.796 9.18612
213 2 -0.231127 7.99254 15.7224 7.56487
138 2 -0.248374 7.99263 10.1642 10.8074
144 2 -0.248374 11.2016 10.1642 10.8074
180 2 -0.248374 9.59709 12.9433 10.8074
216 2 -0.248374 7.99254 15.7224 10.8074
