ITEM: TIMESTEP
1600000
ITEM: NUMBER OF ATOMS
432
ITEM: BOX BOUNDS xy xz yz pp pp pp
-1.0591563984847491e+01 1.9926438810393154e+01 -9.8597046634168670e+00
-6.3427246629084311e-01 1.7257236382558151e+01 3.9488962566154176e-05
-6.3697842570473462e-01 2.4959475945504689e+01 -8.3732565440012754e-08
ITEM: ATOMS id type q x y z
332 1 -0.0443917 0.543553 1.68095 0.513166
201 2 0.0233204 2.84524 1.89899 1.72111
34 2 0.0238666 0.226201 3.46628 2.49195
392 1 -0.0454516 1.34685 1.45952 3.92546
202 2 0.0212829 -0.962392 0.614465 4.71012
396 2 0.0240804 1.25861 3.51124 5.6285
44 1 -0.0457844 2.49573 1.80859 7.30971
207 2 0.0226497 -0.0743293 1.2232 7.48595
88 2 0.024276 3.51071 0.0110933 8.83162
173 2 0.0229271 2.03537 -0.309831 5.84014
360 2 0.0181777 -2.67235 4.09096 5.769
65 2 0.0232359 -2.18305 3.3309 8.832
282 2 0.0231853 -0.83155 3.27459 11.7729
358 2 0.0228801 1.4824 2.10088 10.0567
361 1 -0.0444892 2.59757 0.243764 11.7538
120 2 0.0229537 -0.0440074 2.94921 14.8483
12 2 0.0231788 1.63031 0.331384 14.2401
170 1 -0.0446177 -2.66253 2.9095 13.9145
323 2 0.0230649 0.915309 2.72047 17.8626
242 1 -0.0448768 -1.64917 2.48938 16.9918
250 2 0.022828 3.37827 0.973568 16.8266
238 2 0.0234664 -1.1036 0.0868551 18.0715
377 2 0.0230341 1.80898 2.60643 21.0041
302 1 -0.0444281 -0.677806 2.2035 19.889
264 2 0.0241021 -0.0473157 -0.0392198 21.168
89 2 0.0247542 -0.994879 4.0864 21.6657
79 1 -0.0438605 0.0489014 1.996 22.9082
432 2 0.0234671 2.37728 2.41288 24.209
215 2 0.0247004 -0.470558 3.74691 24.7773
291 2 0.0242942 0.604219 -0.229765 24.3877
75 2 0.0236798 -1.29189 6.9162 2.30546
296 1 -0.0469781 -3.68169 7.15422 1.26914
324 2 0.0195891 -3.17526 4.84207 0.234426
71 2 0.0236777 -1.93154 7.64392 -0.780183
77 2 0.0243805 -0.470573 6.34897 5.30627
115 1 -0.0478253 -2.97828 6.32305 4.27378
41 2 0.0235746 0.0935876 5.77879 8.38915
80 1 -0.0457933 -2.3363 5.71983 7.26927
59 2 0.0237308 -3.10658 7.99852 6.18765
339 2 0.0191112 -5.62976 8.46989 8.30432
68 1 -0.044676 -1.45818 5.50114 10.446
144 2 0.0239089 -1.61179 8.51616 8.93649
424 2 0.023822 -3.86206 5.96682 9.50426
3 2 0.025019 -0.796424 7.27281 15.0748
31 1 -0.0448799 -0.726625 5.17453 13.4682
303 2 0.0246377 -3.25901 5.06498 12.4813
90 2 0.0251397 -1.36894 7.55641 11.9464
284 1 -0.044974 0.0901007 5.03336 16.5702
322 2 0.0224211 -3.95552 7.74488 15.5846
419 2 0.0243249 0.0214445 7.34274 18.1084
275 2 0.0238135 -2.50533 4.83006 15.6751
297 2 0.0207616 -3.2256 8.05811 18.7133
67 1 -0.0466237 -4.77928 7.62264 20.862
403 1 -0.0450863 0.865231 4.75888 19.6386
309 2 0.0237149 -1.52419 4.71594 18.6515
314 1 -0.0451981 -4.38075 7.60522 23.9477
23 2 0.0234391 -3.56718 5.65971 22.4722
402 2 0.0218305 -2.26826 8.47855 21.724
265 1 -0.0449543 1.45422 4.57891 22.8392
113 2 0.0232256 -4.26223 9.59855 0.203632
357 2 0.0232431 -6.56906 11.5853 -0.351705
109 1 -0.0452463 -1.92498 9.40706 1.28506
161 2 0.0216473 -4.95216 12.5295 2.87062
140 1 -0.0462596 -5.47205 12.2704 5.55802
125 2 0.0233769 -3.81153 8.75719 3.2458
33 2 0.0203317 -7.46404 11.4127 5.05589
152 1 -0.0445071 -1.33614 8.78188 4.26158
58 2 0.0229412 -6.75415 12.5734 7.95625
153 2 0.0229891 -4.43204 10.8286 6.70758
299 2 0.0248013 -2.92977 11.5126 9.51964
355 1 -0.0465461 -5.44108 10.9608 9.71949
335 2 0.023136 -4.14933 9.12834 11.1802
376 2 0.0232642 -2.55797 10.0614 13.7144
239 2 0.0228824 -6.39088 11.1451 12.2604
313 1 -0.0462524 -5.03546 9.35224 13.8394
331 1 -0.0460989 -3.82054 11.6748 12.2813
106 2 0.0206734 -4.92326 11.7013 15.0436
362 1 -0.0490068 -4.09421 10.039 17.0325
220 2 0.0184409 -1.97905 10.2534 16.7117
373 1 -0.0502055 -3.46255 10.2848 20.467
234 2 0.0209725 -5.78817 9.81376 19.3943
172 2 0.0236679 -7.42994 12.4971 19.2027
315 2 0.0148807 -3.99527 12.1348 18.4783
158 1 -0.0471593 -2.76212 9.97105 23.7004
53 2 0.0233623 -5.16649 9.7227 22.6437
197 2 0.0241603 -6.34298 12.8812 22.108
76 2 0.0151745 -2.88562 11.7601 21.8704
70 2 0.0226643 -8.96285 17.359 2.21371
430 2 0.0240125 -6.7642 15.8332 -0.235376
151 1 -0.0461985 -5.46137 13.9338 1.31281
167 2 0.0206508 -8.1382 13.5324 1.56855
191 2 0.0230875 -5.36022 16.24 2.5469
165 2 0.0234123 -5.44514 14.74 5.99339
184 2 0.0248241 -8.63346 15.2142 7.93647
175 1 -0.0452319 -10.1561 16.7454 6.52428
164 1 -0.0445656 -4.13931 13.2935 8.05016
258 2 0.0249669 -7.44066 15.7072 10.721
141 2 0.0216413 -9.95191 17.5804 11.5704
32 1 -0.0454195 -8.88505 17.4737 9.19506
400 2 0.0242563 -5.21821 13.5487 10.5258
212 1 -0.0452707 -8.59504 15.7592 13.2528
328 2 0.0245963 -5.87103 16.2974 13.2989
329 2 0.0238745 -7.29867 13.9607 15.0033
393 2 0.0219704 -5.84211 14.6338 17.6538
386 1 -0.0445568 -7.04376 16.3723 15.8648
426 2 0.0246256 -8.17316 16.636 18.349
409 1 -0.0446194 -8.60876 14.1299 17.4134
36 2 0.0234596 -9.76014 15.9222 15.6834
181 1 -0.0439104 -7.20225 14.9256 20.1321
372 2 0.0205411 -4.56275 14.9369 20.5018
285 2 0.024328 -6.54988 17.5063 20.9029
428 1 -0.0445999 -5.51077 17.0636 18.5213
262 2 0.0253975 -8.25105 15.3521 22.4963
13 1 -0.044488 -7.30651 13.4412 24.4411
248 1 -0.0439052 -5.63815 15.5304 22.7414
371 2 0.0219579 -4.45564 13.7498 24.5005
10 2 0.0236606 5.71519 0.784054 0.934666
57 2 0.0237255 6.60247 3.30943 -0.702543
99 2 0.0234895 7.10094 1.85255 3.62005
38 1 -0.0445808 2.72595 4.06881 3.38072
18 2 0.0224723 3.8587 2.00138 4.71484
8 1 -0.046161 8.55287 0.26428 4.95799
9 2 0.0227211 5.14366 2.29306 7.59391
122 1 -0.0445204 3.99847 2.44968 10.1477
406 2 0.0223791 6.65458 3.23766 10.1616
257 2 0.0242486 5.21623 0.616746 11.4004
233 2 0.0159778 8.02844 1.50438 8.94324
223 1 -0.0429407 5.83026 3.01761 12.676
94 2 0.022731 6.94687 0.976262 13.9382
78 2 0.023178 3.15772 2.70864 12.778
404 1 -0.0440447 4.32687 0.782743 14.2592
224 1 -0.0429125 5.99481 1.21715 16.821
228 2 0.0221006 8.52852 0.741044 16.5687
318 2 0.0290003 7.34932 3.54963 17.7797
156 2 0.024075 5.12089 3.20181 15.3746
319 1 -0.040368 7.88385 1.40829 19.2607
270 2 0.0244274 5.2246 1.66711 19.3535
229 1 -0.043617 5.89179 -0.353541 21.1267
230 1 -0.0433813 7.06868 0.840583 23.8802
399 2 0.0270257 7.10525 1.89947 21.9744
405 2 0.0241484 4.58983 0.177812 23.6396
410 1 -0.0460005 3.25373 6.87719 0.0872528
183 2 0.0262776 1.706 6.35036 2.18825
129 2 0.0225179 4.35564 4.66049 1.21917
380 1 -0.0442736 1.83046 4.27568 0.426862
193 1 -0.047015 4.14103 6.73661 2.93188
118 2 0.0229628 5.44445 4.86301 4.13134
27 2 0.0257952 2.72034 6.28295 5.27682
42 2 0.0255854 4.73324 7.08099 8.36886
2 1 -0.044984 -0.420357 8.25266 7.13079
180 2 0.0240904 2.88317 4.42311 8.46645
123 2 0.0246659 2.02779 8.50721 7.77556
86 1 -0.0449911 3.95923 4.13332 6.1567
154 2 0.0237907 2.9494 8.22306 11.0686
263 2 0.0245173 4.55092 5.1556 11.4762
368 1 -0.0452925 0.535075 7.85307 10.1114
85 1 -0.0438547 5.48796 4.67419 9.04495
135 2 0.0227559 1.14281 5.61628 11.3769
50 1 -0.0447511 1.12578 7.62855 13.1296
243 2 0.0219534 1.8466 5.48108 14.5006
255 2 0.0231232 3.52545 8.16748 14.3034
411 2 0.0215281 2.60102 5.52165 17.6247
427 1 -0.0442431 1.66302 7.49869 16.1461
219 2 0.0220292 3.21507 5.54276 20.7505
272 1 -0.0439881 2.15657 7.49964 19.4262
340 2 0.0241574 0.39949 6.85227 21.2986
347 2 0.0250537 0.934494 6.55377 24.558
157 1 -0.0448865 2.5791 7.27837 22.6139
306 2 0.022236 3.8024 5.25526 23.8044
213 2 0.0238034 0.642436 12.8333 1.10461
16 2 0.0200809 -1.58252 11.2121 -0.59513
111 2 0.026378 0.766759 9.23497 0.816772
163 1 -0.0427648 1.49712 10.8101 -0.466287
131 2 0.0241397 0.648489 12.7277 4.61612
116 1 -0.0430415 1.32074 10.8864 2.79103
189 2 0.0224892 -1.42275 10.9606 2.8052
81 2 0.0261576 1.2279 8.91368 4.35237
96 2 0.024319 0.762071 11.8666 8.55372
43 1 -0.0443884 1.55788 10.716 6.14841
149 2 0.0232725 -0.945538 10.4858 6.19236
286 2 0.024898 0.367041 10.1447 11.3903
217 1 -0.0446507 1.99604 10.4169 9.49126
420 2 0.0220204 -1.2595 12.7927 11.7415
155 2 0.0256797 1.51206 12.3539 13.5679
14 1 -0.0438233 2.56443 10.1578 12.7693
341 2 0.0258626 0.85249 9.75541 14.8293
343 1 -0.0525835 -2.31286 12.43 14.82
138 2 0.023517 1.43305 12.313 17.1051
259 1 -0.0417107 2.61612 10.3782 15.819
345 2 0.0251065 3.67772 8.7314 17.5583
321 2 0.0241487 0.950169 9.80685 19.7322
375 2 0.019682 1.25833 12.8869 20.2365
235 1 -0.0417808 2.66388 10.7156 18.916
352 2 0.0158908 -1.26612 10.883 19.1822
429 2 0.0246098 3.77213 8.92149 20.9611
112 2 0.0245439 0.826738 9.48556 23.0047
408 2 0.0208714 0.758958 12.6401 23.3913
416 1 -0.0435868 2.11104 10.88 21.8269
196 2 0.0212391 3.64578 8.6432 24.4831
15 2 0.0220822 -2.7916 14.5777 1.453
414 2 0.0233142 -1.50797 17.1376 -0.0185046
91 1 -0.0447409 -4.14002 16.2932 -0.170689
182 1 -0.0447553 -2.66481 17.1572 2.39111
330 2 0.0240602 -1.30565 15.5829 4.14674
11 2 0.0229614 -3.83187 17.2764 5.11361
139 1 -0.0452199 -3.84705 14.7292 3.86714
246 2 0.0235675 -1.46703 14.1605 8.43989
69 2 0.020436 -0.722108 17.026 7.07084
236 1 -0.0452783 -2.69764 15.4882 6.48092
40 2 0.0224768 -4.10281 15.9416 8.69864
389 2 0.0242329 -2.67755 13.1034 5.56749
84 2 0.0147371 -1.46519 16.2934 11.0512
110 1 -0.0498184 -2.14921 16.6399 9.09741
325 1 -0.0474552 -2.69659 14.0341 10.7719
148 2 0.0176651 -3.62037 14.0116 13.3439
336 2 0.0149714 -0.493198 13.5536 14.625
394 2 0.0216913 -4.28173 16.7861 15.8897
244 2 0.0103818 -2.7632 13.3938 16.7008
369 2 0.0208416 -2.91775 16.9241 18.7242
226 2 0.0215277 -0.922465 17.3932 21.0865
159 2 0.0215225 -2.9395 15.9995 22.9876
51 2 0.0242647 10.6914 3.2006 1.37801
24 2 0.0215603 12.5663 0.728815 -0.752477
62 1 -0.0440381 8.24432 1.90993 1.0114
25 1 -0.044965 9.58771 2.83637 3.70561
17 2 0.0214143 10.9919 1.23821 5.136
147 2 0.0236293 9.70987 0.279987 2.5666
237 2 0.0172513 13.9639 -0.0143117 3.72473
93 2 0.0143389 11.438 2.80137 8.33153
74 1 -0.0496268 10.9682 3.39916 6.39271
198 2 0.0190675 8.46397 2.40428 6.58435
126 2 0.0229699 12.1266 -0.0553418 7.48103
54 2 0.0215918 12.5407 0.381374 10.6094
280 2 0.0200423 10.5877 2.55034 14.8624
179 2 0.0233285 13.4227 0.412895 13.7212
39 2 0.0212409 8.59374 3.31917 12.4613
397 1 -0.0404396 7.86107 3.11752 15.1542
344 1 -0.0413663 9.86456 2.945 17.5148
382 2 0.0199009 12.7176 2.7491 17.2008
276 2 0.0209052 10.6467 0.712103 18.771
260 1 -0.0459091 11.9367 2.67952 19.7072
240 2 0.0293098 9.411 3.18898 20.3881
95 2 0.0211871 12.3426 0.421297 21.4064
308 1 -0.0419378 9.84525 1.43683 21.5957
185 2 0.0268077 9.57913 2.18784 24.2116
49 1 -0.0424103 7.73044 3.84763 22.6615
178 2 0.0234552 8.60743 7.252 1.23444
119 2 0.0250935 7.81085 4.38355 2.05757
92 1 -0.0432047 8.97215 4.76447 -0.2006
87 2 0.0168714 5.23383 7.81763 1.48188
63 2 0.0237411 9.39269 5.17239 5.11039
271 1 -0.0430912 10.2591 5.51817 2.57001
211 1 -0.0454909 5.18573 6.8784 5.84482
385 1 -0.0441426 7.14896 7.53595 7.95821
177 2 0.0223667 7.68494 7.83848 5.82279
384 2 0.023504 6.76472 4.99829 6.91302
334 2 0.0220213 8.31181 6.16591 9.65335
356 1 -0.0423192 7.04079 5.68741 11.8735
194 1 -0.0432782 8.0258 8.62245 10.5696
363 2 0.024935 9.4252 7.22119 12.5381
349 1 -0.0418136 7.74073 7.16908 14.7669
268 2 0.0248968 6.38253 8.23168 12.607
132 2 0.0272126 6.85859 5.35454 13.9679
337 1 -0.0440871 9.88309 4.96119 13.8751
304 2 0.0226948 6.38423 6.80029 17.1997
231 2 0.0290916 9.37416 5.26616 15.9155
295 1 -0.0446307 8.33687 8.52231 17.7028
421 1 -0.0472014 11.9704 4.52952 16.1358
209 2 0.0228984 6.75993 8.35231 19.9725
305 2 0.0249299 9.34017 6.67536 19.2537
374 1 -0.0439834 7.40981 5.92203 18.8967
48 2 0.0241126 11.294 5.06863 18.6949
5 2 0.0225545 6.39327 5.2825 21.0422
338 1 -0.0446515 8.23485 6.88313 21.6714
52 2 0.0228881 7.22354 6.33165 24.0446
353 2 0.026397 9.93436 5.11256 22.8424
145 1 -0.0437942 9.48552 7.69118 24.315
378 2 0.0232649 3.45324 11.2345 1.12827
162 2 0.0164407 7.67327 10.8573 4.62272
124 2 0.0241585 3.4895 11.3078 4.27631
66 2 0.0195925 4.93682 8.58906 4.58136
169 1 -0.0461791 7.90395 10.3456 6.66876
45 2 0.0240169 7.1931 12.7497 7.34281
166 2 0.0251231 3.72084 11.3596 7.47751
261 2 0.0251261 6.33126 9.86694 8.79762
192 2 0.0231575 7.20517 11.1412 11.5516
401 2 0.023666 4.00305 11.337 10.7859
415 1 -0.0441237 8.59496 9.77651 13.3681
407 2 0.0244812 4.42023 11.1346 14.3189
383 2 0.0231787 7.02595 9.64297 15.6272
387 2 0.0232085 7.92929 10.9563 18.4617
417 2 0.0236436 4.40515 12.0447 20.3583
266 1 -0.0447041 9.13852 9.47494 20.4218
312 2 0.0222944 3.86907 11.6529 23.5554
160 2 0.0221919 7.84572 9.28371 22.7687
82 2 0.0221393 4.86201 14.1874 1.12785
298 2 0.0234524 2.01645 15.6822 0.877761
205 1 -0.0436265 2.79253 13.4606 -0.416919
187 1 -0.0450293 4.07156 16.1361 -0.708833
190 2 0.02325 4.80989 14.4187 4.25518
204 2 0.0238365 1.84897 15.6232 4.08029
55 1 -0.0431556 2.72016 13.4484 2.75746
56 1 -0.0461514 3.84928 16.1674 2.55141
168 2 0.0246024 4.73556 14.4486 7.37302
19 1 -0.0457702 3.67439 16.3453 5.86799
301 1 -0.0436633 2.93218 13.3807 5.79384
60 2 0.0255144 1.57782 14.7474 7.38269
174 2 0.0236827 4.95741 14.4491 10.5079
171 2 0.0247663 1.70839 14.9232 10.6603
206 1 -0.0431765 3.45341 16.1765 9.01614
367 1 -0.0433097 3.77162 16.2683 11.9354
26 1 -0.0435813 2.99341 13.294 9.04575
350 1 -0.0433518 4.36161 16.0902 15.0016
251 2 0.0239088 5.13497 14.0064 13.7106
413 2 0.0221279 2.1155 15.4155 13.7986
200 1 -0.0431851 3.06309 13.2501 12.3676
300 2 0.0213975 2.54757 15.4211 16.8896
61 1 -0.0458787 5.25298 15.8235 18.0481
425 2 0.0249515 5.16916 13.4801 17.0506
146 1 -0.0421486 3.16992 13.4101 15.3662
232 2 0.0211573 3.39957 15.2981 19.9972
320 1 -0.0440611 3.254 13.5918 18.6712
274 2 0.0202558 5.03425 14.6382 23.6047
222 2 0.0205881 2.03854 15.4395 23.0831
7 1 -0.0456831 2.923 13.7203 22.1306
256 2 0.015356 15.8433 3.06843 0.858059
29 2 0.0228317 18.5699 1.16015 0.105397
278 1 -0.0477629 14.6396 1.35476 -0.731099
227 2 0.0210237 12.1399 3.90426 4.15036
107 2 0.0199151 14.122 2.53128 6.69606
1 1 -0.0461103 16.0234 3.85643 7.92816
97 1 -0.0450403 13.999 1.32249 8.45753
98 1 -0.043501 16.9998 3.49002 11.0278
269 2 0.0218275 14.4807 3.30092 10.0834
20 1 -0.0427489 14.9658 1.05053 11.6036
221 2 0.0240182 17.6106 1.18068 11.8913
247 1 -0.0437472 15.998 0.633713 14.5366
216 2 0.0241301 15.3576 2.93706 13.3837
6 2 0.0230738 18.5425 0.54572 15.0247
114 2 0.0233213 16.3629 2.42208 16.4001
241 1 -0.0458283 16.9881 0.143617 17.4132
365 2 0.0233363 14.3586 0.109095 16.7814
287 2 0.0234159 17.5043 2.18217 19.3461
105 2 0.0212072 14.4403 2.39787 19.8973
254 1 -0.0468517 18.0268 -0.258883 20.3339
28 2 0.0218427 15.4465 -0.0874463 19.8138
342 2 0.0231538 15.8294 2.81599 22.755
46 2 0.0247866 18.0916 1.46174 22.4177
288 2 0.0207387 13.3042 3.79113 24.6006
310 2 0.0231 15.2176 -0.133807 23.3301
199 1 -0.0458408 18.8807 -0.308205 23.2977
218 1 -0.0462856 13.3955 2.09238 22.3482
104 1 -0.0441972 10.9882 8.30517 1.38504
279 2 0.0216953 14.83 6.75057 0.191129
64 2 0.0251551 11.2429 6.03365 -0.0569058
142 2 0.0212353 14.132 8.05939 5.15994
37 1 -0.0466924 11.7717 6.3393 5.14123
143 2 0.0167971 16.0908 5.56588 3.13464
35 2 0.0230703 12.7357 6.56166 2.65123
117 2 0.0237778 10.2089 8.14623 3.89765
273 2 0.0164229 12.3308 5.54721 7.00904
30 2 0.0212467 15.4532 5.55379 6.77487
317 2 0.0122498 12.8534 6.92607 10.2899
359 2 0.0131402 11.6621 5.07232 11.5217
292 2 0.0203627 15.4168 6.71603 12.8405
412 2 0.0192477 12.8361 8.48058 13.1919
277 1 -0.0488789 14.1845 6.99029 15.0605
72 2 0.0168516 12.79 4.83331 13.7508
281 2 0.0222352 12.0238 7.06559 16.3612
326 1 -0.048553 14.9882 7.4944 17.9586
423 2 0.0187409 14.6945 5.28374 16.3518
351 2 0.0262677 9.94983 8.40925 15.5634
225 2 0.0211238 16.1046 5.17613 19.4881
311 2 0.0196732 13.582 6.99988 19.5178
283 1 -0.0471426 14.8934 4.73056 21.2228
100 2 0.022631 12.3932 4.28244 21.581
136 2 0.0224417 14.0646 6.72424 22.7201
208 2 0.0239982 10.699 7.9674 21.9268
73 1 -0.0477982 15.2722 4.70872 24.373
103 1 -0.0460962 11.6538 11.087 0.507184
83 2 0.0226937 13.5182 9.56579 2.01549
366 2 0.0197416 9.23369 10.0903 -0.0758982
21 2 0.0194281 10.7785 10.9979 2.4635
133 1 -0.0464024 12.6346 9.05481 3.9309
130 2 0.0237508 10.1066 11.626 6.62466
289 1 -0.0489338 13.8354 9.90108 7.27999
210 2 0.0234609 9.40498 8.95821 8.21432
395 2 0.0199524 11.5404 8.59481 6.88684
294 2 0.0257779 11.0087 12.6265 9.47966
195 2 0.0241867 10.1333 9.93712 11.0057
364 2 0.0188978 12.7967 10.0899 9.601
379 1 -0.0436161 8.643 11.4048 9.24487
253 1 -0.051151 13.9313 8.50721 11.3123
418 2 0.0246885 10.9419 10.8192 13.8046
381 2 0.0214818 8.17953 12.3395 14.3853
134 1 -0.0454691 9.51968 12.4013 12.0296
388 2 0.0238601 11.9229 11.6031 16.5678
176 1 -0.045008 9.43996 10.8957 16.188
293 2 0.0217206 14.0596 9.33588 16.2273
346 2 0.0233686 10.7803 9.35343 18.4864
203 2 0.0223696 9.11536 11.9265 21.3366
391 1 -0.0445019 10.5128 11.9176 18.9418
348 2 0.0249754 12.1149 10.6386 21.3105
398 1 -0.0430358 11.7328 12.7927 21.6408
127 1 -0.0437686 10.3107 10.3163 23.1691
249 2 0.0220054 10.7685 12.7381 24.1729
214 2 0.0248927 12.1206 8.98096 24.648
252 2 0.0184702 10.2048 14.6509 1.76034
290 1 -0.0468717 9.47017 17.0248 0.669031
22 2 0.0199817 5.46603 17.3966 0.925741
390 2 0.0180741 8.28704 15.8008 -0.633097
422 1 -0.047282 9.65065 16.1812 3.80156
327 2 0.0223418 10.9602 14.3486 5.14936
354 2 0.0192514 7.92545 16.8981 2.78097
186 2 0.0162408 7.99713 13.7656 3.34411
121 1 -0.0477993 8.62937 13.1881 5.24568
128 1 -0.0438927 9.56455 14.1138 7.81291
4 2 0.0206695 5.33255 17.4944 6.5932
267 2 0.0224674 8.09656 15.6463 5.94642
188 1 -0.0455461 10.5858 15.0074 10.568
108 2 0.0248054 5.68767 17.4571 9.63583
102 2 0.022618 8.1864 13.9187 10.1562
150 2 0.0225956 9.23893 16.6079 8.84677
431 2 0.0207194 9.41692 14.9657 12.9808
333 2 0.0240206 6.18962 16.6448 12.6284
307 1 -0.0456267 10.7217 13.3828 14.6794
137 2 0.0246292 12.0641 13.324 12.2616
370 2 0.0230645 6.81681 15.9764 15.7225
245 2 0.0228795 9.40528 13.4739 17.1337
101 2 0.0239898 10.7147 14.4011 19.8643
47 2 0.0199057 7.28244 15.3995 18.7204
316 2 0.0180919 7.85357 16.0231 21.7175
